<LesHouchesEvents version="1.0">
<header>
</header>
<init>
	2212 2212 6.500000e+03 6.500000e+03 292200 292200 292200 292200 3 1
	7.3 1.0 1.0 7000
</init>
<event>
	17 7000 1.000000e+00 7.593274e+01 7.3e-03 0.118
	21	-1	0	0	501	503	0.000000e+00	0.000000e+00	5.609034e+01	5.609034e+01	0.000000e+00	0	9
	21	-1	0	0	502	510	0.000000e+00	0.000000e+00	-2.569864e+01	2.569864e+01	0.000000e+00	0	9
	1	1	1	2	509	0	7.503539e-01	-2.000299e+00	7.292325e-01	2.257439e+00	4.800000e-03	0	9
	-1	1	1	2	0	508	-3.502612e-01	-7.437559e+00	-9.401535e-01	7.504923e+00	4.800000e-03	0	9
	2	1	1	2	507	0	-5.928621e-01	4.645871e-01	5.221280e-01	9.164876e-01	2.300000e-03	0	9
	-2	1	1	2	0	510	2.728288e+00	4.424223e+00	6.951680e+00	8.680044e+00	2.300000e-03	0	9
	3	1	1	2	502	0	-1.030741e+00	-1.676040e+00	-9.669433e-02	1.972286e+00	9.500000e-02	0	9
	-3	1	1	2	0	503	-1.289379e+00	1.451070e+00	4.726115e+00	5.110116e+00	9.500000e-02	0	9
	4	1	1	2	512	0	2.130468e+00	7.779555e+00	9.530000e-01	8.221569e+00	1.275000e+00	0	9
	-4	1	1	2	0	512	1.012941e-01	6.225829e+00	4.487452e+00	7.780363e+00	1.275000e+00	0	9
	21	1	1	2	501	513	-1.059261e+01	3.920001e+00	4.186382e+00	1.204556e+01	1.685874e-07	0	9
	21	1	1	2	506	504	2.525634e+00	-9.625991e+00	5.823017e+00	1.153022e+01	-1.685874e-07	0	9
	21	1	1	2	511	506	6.105349e+00	-4.193780e+00	-3.239033e+00	8.084208e+00	1.192093e-07	0	9
	21	1	1	2	513	505	-2.710240e-01	-2.725220e-01	3.389944e+00	3.411663e+00	5.960464e-08	0	9
	21	1	1	2	508	507	-4.780049e-01	-4.704647e-01	2.326768e-01	7.099043e-01	-1.053671e-08	0	9
	21	1	1	2	504	509	9.032496e-01	8.286752e-01	6.890613e-01	1.406189e+00	-2.107342e-08	0	9
	21	1	1	2	505	511	-6.397598e-01	5.827180e-01	1.976895e+00	2.158001e+00	0.000000e+00	0	9
</event>
<event>
	21 7000 1.000000e+00 5.108554e+01 7.3e-03 0.118
	21	-1	0	0	509	505	0.000000e+00	0.000000e+00	3.131527e+01	3.131527e+01	0.000000e+00	0	9
	21	-1	0	0	512	514	0.000000e+00	0.000000e+00	-2.083434e+01	2.083434e+01	0.000000e+00	0	9
	1	1	1	2	506	0	-4.332727e+00	1.695228e+00	1.613345e+00	4.924350e+00	4.800000e-03	0	9
	-1	1	1	2	0	507	3.362132e-01	-3.763130e-01	2.708961e+00	2.755566e+00	4.800000e-03	0	9
	2	1	1	2	513	0	1.133648e+00	5.763077e-01	1.974638e-01	1.286968e+00	2.300000e-03	0	9
	-2	1	1	2	0	505	-1.423162e+00	7.356140e-01	3.373458e-01	1.637170e+00	2.300000e-03	0	9
	3	1	1	2	517	0	1.976054e+00	9.749822e-01	2.906902e-01	2.224614e+00	9.500000e-02	0	9
	-3	1	1	2	0	513	3.485758e+00	1.811351e+00	5.599659e-01	3.969142e+00	9.500000e-02	0	9
	4	1	1	2	510	0	2.995660e+00	-2.141352e+00	-1.527642e+00	4.185533e+00	1.275000e+00	0	9
	-4	1	1	2	0	508	-1.179004e+00	-9.354675e-01	-8.360945e-01	2.142389e+00	1.275000e+00	0	9
	21	1	1	2	516	504	-1.871846e+00	-3.377410e-01	-3.393307e-01	1.932103e+00	-2.980232e-08	0	9
	21	1	1	2	507	515	-1.146136e+00	2.564047e+00	1.716078e+00	3.291335e+00	4.214685e-08	0	9
	21	1	1	2	501	502	3.734895e-01	1.055875e+00	1.129659e+00	1.590754e+00	2.980232e-08	0	9
	21	1	1	2	504	510	-3.641451e+00	-9.427184e-01	2.258187e+00	4.387287e+00	5.960464e-08	0	9
	21	1	1	2	511	501	3.149930e-01	-4.516537e+00	1.827851e-01	4.531196e+00	0.000000e+00	0	9
	21	1	1	2	503	511	-5.653168e-02	7.985813e-02	6.049073e-01	6.127691e-01	1.053671e-08	0	9
	21	1	1	2	502	503	1.418842e+00	3.619706e+00	2.356427e+00	4.546222e+00	-1.192093e-07	0	9
	21	1	1	2	509	514	4.019019e-01	-7.287978e-01	9.218959e-01	1.242000e+00	1.490116e-08	0	9
	21	1	1	2	508	517	-2.064394e+00	-2.240510e+00	-1.207725e-01	3.048966e+00	-8.429370e-08	0	9
	21	1	1	2	515	506	2.014182e+00	-3.398814e-01	-5.275888e-01	2.109692e+00	0.000000e+00	0	9
	21	1	1	2	512	516	1.264510e+00	-5.536514e-01	-1.045357e+00	1.731557e+00	2.107342e-08	0	9
</event>
<event>
	16 7000 1.000000e+00 5.814329e+01 7.3e-03 0.118
	21	-1	0	0	509	507	0.000000e+00	0.000000e+00	5.315459e+01	5.315459e+01	0.000000e+00	0	9
	21	-1	0	0	502	504	0.000000e+00	0.000000e+00	-1.590005e+01	1.590005e+01	0.000000e+00	0	9
	1	1	1	2	510	0	8.224332e-01	-1.355885e+00	-1.082825e-01	1.589519e+00	4.800000e-03	0	9
	-1	1	1	2	0	511	-9.643054e-01	-4.298491e-01	1.739340e+00	2.034694e+00	4.800000e-03	0	9
	2	1	1	2	501	0	2.585215e-01	1.936109e+00	-8.280166e-01	2.121549e+00	2.300000e-03	0	9
	-2	1	1	2	0	501	-4.690028e+00	-1.549917e+00	5.950527e+00	7.733524e+00	2.300000e-03	0	9
	3	1	1	2	506	0	1.000848e+00	4.542533e+00	3.143029e+00	5.614620e+00	9.500000e-02	0	9
	-3	1	1	2	0	505	8.159506e-02	5.511022e-01	1.012353e+00	1.159420e+00	9.500000e-02	0	9
	4	1	1	2	511	0	-2.387209e+00	-6.326563e+00	2.258215e+00	7.242191e+00	1.275000e+00	0	9
	-4	1	1	2	0	506	1.250257e+01	-5.904683e+00	5.120902e+00	1.479963e+01	1.275000e+00	0	9
	21	1	1	2	508	512	-3.324686e-01	-9.761065e-01	3.737073e-01	1.096803e+00	2.107342e-08	0	9
	21	1	1	2	502	508	-7.626495e-01	-1.666620e+00	3.002722e+00	3.517896e+00	0.000000e+00	0	9
	21	1	1	2	509	503	-1.836881e+00	-1.480209e-02	1.660457e+00	2.476180e+00	-2.980232e-08	0	9
	21	1	1	2	512	504	-1.502629e-01	3.917174e-01	1.050448e+00	1.131133e+00	0.000000e+00	0	9
	21	1	1	2	503	510	-1.266928e-01	4.942272e+00	1.290520e+00	5.109555e+00	5.960464e-08	0	9
	21	1	1	2	505	507	-3.415475e+00	5.860692e+00	1.158862e+01	1.342793e+01	-1.685874e-07	0	9
</event>
<event>
	12 7000 1.000000e+00 5.366102e+01 7.3e-03 0.118
	21	-1	0	0	507	506	0.000000e+00	0.000000e+00	1.509384e+00	1.509384e+00	0.000000e+00	0	9
	21	-1	0	0	506	505	0.000000e+00	0.000000e+00	-4.769339e+02	4.769339e+02	0.000000e+00	0	9
	1	1	1	2	504	0	-1.048463e+00	3.030593e+00	-2.655716e+01	2.675007e+01	4.800000e-03	0	9
	-1	1	1	2	0	501	-5.264627e+00	-4.776938e+00	-3.367848e+01	3.442057e+01	4.800000e-03	0	9
	2	1	1	2	502	0	2.078196e+00	5.066128e-01	-5.292668e+01	5.296989e+01	2.300000e-03	0	9
	-2	1	1	2	0	505	-4.762895e-01	4.558605e+00	-2.245680e+02	2.246148e+02	2.300000e-03	0	9
	3	1	1	2	508	0	4.492814e+00	-2.746888e+00	-2.799741e+01	2.848850e+01	9.500000e-02	0	9
	-3	1	1	2	0	502	-7.264746e+00	2.899564e-01	-4.034836e+01	4.099829e+01	9.500000e-02	0	9
	4	1	1	2	501	0	1.141253e+00	-5.800890e-01	-1.905896e+01	1.914441e+01	1.275000e+00	0	9
	-4	1	1	2	0	503	1.992391e+00	1.193741e-01	-2.072137e+01	2.085629e+01	1.275000e+00	0	9
	21	1	1	2	503	508	-1.121744e-01	5.956822e-01	-5.313914e-01	8.061000e-01	-7.450581e-08	0	9
	21	1	1	2	507	504	4.461645e+00	-9.969089e-01	-2.903669e+01	2.939438e+01	-3.371748e-07	0	9
</event>
<event>
	17 7000 1.000000e+00 5.665683e+01 7.3e-03 0.118
	21	-1	0	0	512	503	0.000000e+00	0.000000e+00	5.558770e+01	5.558770e+01	0.000000e+00	0	9
	21	-1	0	0	502	507	0.000000e+00	0.000000e+00	-1.443663e+01	1.443663e+01	0.000000e+00	0	9
	1	1	1	2	506	0	-8.902010e-02	9.227628e-01	6.477074e-01	1.130913e+00	4.800000e-03	0	9
	-1	1	1	2	0	504	-9.956025e-01	3.542067e+00	6.514383e-01	3.736557e+00	4.800000e-03	0	9
	2	1	1	2	511	0	-2.354824e+00	-4.630948e+00	3.856449e+00	6.470168e+00	2.300000e-03	0	9
	-2	1	1	2	0	510	-1.335809e-01	7.232676e-01	3.990904e-01	8.368024e-01	2.300000e-03	0	9
	3	1	1	2	502	0	-3.673080e+00	4.080992e-01	3.608883e+00	5.166345e+00	9.500000e-02	0	9
	-3	1	1	2	0	509	5.493730e-01	-4.293010e+00	1.359109e+00	4.537395e+00	9.500000e-02	0	9
	4	1	1	2	513	0	-2.167056e+00	-6.880430e-02	9.353344e+00	9.685635e+00	1.275000e+00	0	9
	-4	1	1	2	0	511	-2.617829e+00	-2.498526e+00	-2.544714e-01	3.845262e+00	1.275000e+00	0	9
	21	1	1	2	504	505	4.195603e+00	-1.551951e-01	3.335978e+00	5.362454e+00	-1.460010e-07	0	9
	21	1	1	2	512	503	-1.806807e+00	-1.081922e+00	2.625667e+00	3.365893e+00	5.960464e-08	0	9
	21	1	1	2	505	513	-2.820652e+00	-1.784349e+00	5.686722e+00	6.593845e+00	1.192093e-07	0	9
	21	1	1	2	501	506	1.138396e-01	-3.885898e-01	8.763773e-01	9.654008e-01	0.000000e+00	0	9
	21	1	1	2	510	507	1.385192e+00	6.716151e-01	6.755811e-01	1.681141e+00	4.214685e-08	0	9
	21	1	1	2	508	501	9.623527e+00	8.877900e+00	8.719988e+00	1.573110e+01	3.769729e-07	0	9
	21	1	1	2	509	508	7.909176e-01	-2.443667e-01	-3.907937e-01	9.154154e-01	2.787752e-08	0	9
</event>
<event>
	14 7000 1.000000e+00 5.385166e+01 7.3e-03 0.118
	21	-1	0	0	502	505	0.000000e+00	0.000000e+00	2.904904e-01	2.904904e-01	0.000000e+00	0	9
	21	-1	0	0	506	503	0.000000e+00	0.000000e+00	-2.495781e+03	2.495781e+03	0.000000e+00	0	9
	1	1	1	2	507	0	2.955812e+00	-1.613683e+00	-9.814082e+01	9.819858e+01	4.800000e-03	0	9
	-1	1	1	2	0	508	1.994810e-01	-3.901402e+00	-1.176382e+02	1.177031e+02	4.800000e-03	0	9
	2	1	1	2	502	0	-1.013663e+00	-9.937670e-01	-7.539019e+01	7.540355e+01	2.300000e-03	0	9
	-2	1	1	2	0	510	8.630304e+00	8.181599e-01	-4.031323e+02	4.032255e+02	2.299994e-03	0	9
	3	1	1	2	509	0	-9.514008e-01	4.558356e-01	-5.127392e+01	5.128486e+01	9.500000e-02	0	9
	-3	1	1	2	0	507	-2.453221e+00	-4.534862e+00	-1.492769e+02	1.493659e+02	9.500000e-02	0	9
	4	1	1	2	510	0	-5.549538e-01	-5.189117e-01	-9.022178e+01	9.023398e+01	1.275000e+00	0	9
	-4	1	1	2	0	509	6.171959e-01	1.589819e+00	-2.588457e+01	2.597200e+01	1.275000e+00	0	9
	21	1	1	2	508	504	-7.163812e+00	3.924545e+00	-1.082220e+03	1.082250e+03	1.525879e-05	0	9
	21	1	1	2	501	505	-2.618128e+00	1.646034e-01	-5.077323e+01	5.084096e+01	-1.168008e-06	0	9
	21	1	1	2	504	503	-1.020402e-01	1.178726e-01	-1.068070e+02	1.068071e+02	-1.348699e-06	0	9
	21	1	1	2	506	501	2.454425e+00	4.491791e+00	-2.447319e+02	2.447854e+02	-2.697398e-06	0	9
</event>
<event>
	17 7000 1.000000e+00 5.122003e+01 7.3e-03 0.118
	21	-1	0	0	513	509	0.000000e+00	0.000000e+00	1.077947e+02	1.077947e+02	0.000000e+00	0	9
	21	-1	0	0	503	508	0.000000e+00	0.000000e+00	-6.084463e+00	6.084463e+00	0.000000e+00	0	9
	1	1	1	2	505	0	-4.850451e+00	4.826021e+00	1.085214e+01	1.282912e+01	4.800000e-03	0	9
	-1	1	1	2	0	507	5.776068e-02	-1.675649e+00	1.157468e+01	1.169549e+01	4.800000e-03	0	9
	2	1	1	2	507	0	1.066094e+00	2.581336e+00	5.785109e+00	6.423967e+00	2.300000e-03	0	9
	-2	1	1	2	0	502	-1.304009e+00	3.479179e+00	1.599546e+01	1.642132e+01	2.300000e-03	0	9
	3	1	1	2	502	0	5.394868e-01	-2.288741e+00	7.238610e-01	2.462190e+00	9.500000e-02	0	9
	-3	1	1	2	0	508	9.494141e-01	-4.841026e-01	2.909204e+00	3.099715e+00	9.500000e-02	0	9
	4	1	1	2	513	0	-1.713961e+00	1.424941e+00	5.940136e+00	6.471396e+00	1.275000e+00	0	9
	-4	1	1	2	0	506	-5.816925e-01	-2.275478e-01	3.643422e+00	3.910281e+00	1.275000e+00	0	9
	21	1	1	2	503	505	2.459050e+00	-9.218052e-02	4.154149e+00	4.828290e+00	5.960464e-08	0	9
	21	1	1	2	504	512	1.322778e+00	1.069969e+00	7.626224e+00	7.813698e+00	1.192093e-07	0	9
	21	1	1	2	510	504	1.592992e+00	-1.779968e+00	8.134147e-01	2.523401e+00	-7.884953e-08	0	9
	21	1	1	2	511	501	-2.458849e-01	-6.108567e+00	1.130246e+01	1.284993e+01	-1.685874e-07	0	9
	21	1	1	2	512	511	1.697249e+00	1.867986e-01	4.553122e+00	4.862763e+00	0.000000e+00	0	9
	21	1	1	2	501	510	2.055895e+00	-1.136636e+00	1.384357e+01	1.404148e+01	-2.384186e-07	0	9
	21	1	1	2	506	509	-3.044722e+00	2.251454e-01	1.993267e+00	3.646112e+00	4.214685e-08	0	9
</event>
<event>
	16 7000 1.000000e+00 6.079134e+01 7.3e-03 0.118
	21	-1	0	0	511	507	0.000000e+00	0.000000e+00	9.337840e+01	9.337840e+01	0.000000e+00	0	9
	21	-1	0	0	510	505	0.000000e+00	0.000000e+00	-9.894116e+00	9.894116e+00	0.000000e+00	0	9
	1	1	1	2	512	0	-1.337570e+00	1.609738e+00	5.594622e+00	5.973288e+00	4.800000e-03	0	9
	-1	1	1	2	0	503	-1.076955e+00	1.221561e-01	6.256872e+00	6.350057e+00	4.800000e-03	0	9
	2	1	1	2	510	0	-6.222068e-02	-4.400758e+00	7.055997e+00	8.316107e+00	2.300000e-03	0	9
	-2	1	1	2	0	508	1.507037e-01	2.641965e+00	4.674675e+00	5.371711e+00	2.300000e-03	0	9
	3	1	1	2	501	0	3.076161e+00	-1.208077e+00	1.483706e+00	3.623897e+00	9.500000e-02	0	9
	-3	1	1	2	0	509	-3.394641e+00	3.076752e+00	4.673485e+00	6.545263e+00	9.500000e-02	0	9
	4	1	1	2	504	0	-3.513777e+00	-1.559416e+00	6.186234e+00	7.394154e+00	1.275000e+00	0	9
	-4	1	1	2	0	504	3.389233e-01	-2.762347e+00	5.257937e+00	6.084156e+00	1.275000e+00	0	9
	21	1	1	2	509	502	-4.229562e+00	-4.869758e+00	2.791543e+00	7.028261e+00	1.685874e-07	0	9
	21	1	1	2	503	506	2.941882e+00	-2.079602e+00	4.372591e+00	5.665595e+00	0.000000e+00	0	9
	21	1	1	2	502	512	-2.104729e+00	2.677897e+00	1.107755e+01	1.158936e+01	-2.384186e-07	0	9
	21	1	1	2	511	505	5.522743e+00	4.183712e+00	1.362532e+01	1.528573e+01	0.000000e+00	0	9
	21	1	1	2	508	507	6.114549e+00	4.866637e-01	7.659446e+00	9.812832e+00	-2.064765e-07	0	9
	21	1	1	2	506	501	-2.425509e+00	2.081075e+00	2.774298e+00	4.232103e+00	-8.429370e-08	0	9
</event>
<event>
	15 7000 1.000000e+00 5.348301e+01 7.3e-03 0.118
	21	-1	0	0	504	511	0.000000e+00	0.000000e+00	7.224572e+00	7.224572e+00	0.000000e+00	0	9
	21	-1	0	0	502	501	0.000000e+00	0.000000e+00	-9.898277e+01	9.898277e+01	0.000000e+00	0	9
	1	1	1	2	504	0	-1.797222e+00	2.927565e+00	-9.868088e+00	1.044892e+01	4.800000e-03	0	9
	-1	1	1	2	0	503	-4.352432e+00	-1.676333e+00	-5.850369e+00	7.482018e+00	4.800000e-03	0	9
	2	1	1	2	508	0	-5.656357e-01	-1.433004e-01	-2.020252e+00	2.102832e+00	2.300000e-03	0	9
	-2	1	1	2	0	506	-5.340702e-01	4.877383e-01	-4.186369e-01	8.356924e-01	2.300000e-03	0	9
	3	1	1	2	502	0	1.233296e-01	1.651774e+00	-1.171263e+00	2.030874e+00	9.500000e-02	0	9
	-3	1	1	2	0	505	-3.904714e-01	-1.190541e+00	-1.194287e+01	1.200879e+01	9.500000e-02	0	9
	4	1	1	2	510	0	-4.879258e+00	-3.836680e+00	-4.850074e+00	7.979732e+00	1.275000e+00	0	9
	-4	1	1	2	0	509	-7.157227e-01	2.267192e+00	-3.479777e+00	4.403055e+00	1.275000e+00	0	9
	21	1	1	2	505	510	8.307353e+00	-3.739169e+00	-1.971644e+01	2.171939e+01	0.000000e+00	0	9
	21	1	1	2	509	507	9.850726e-01	-6.772854e-01	-3.642493e+00	3.833645e+00	0.000000e+00	0	9
	21	1	1	2	506	501	7.288294e+00	4.649528e+00	-2.627151e+01	2.765736e+01	0.000000e+00	0	9
	21	1	1	2	507	508	-3.865927e+00	3.337950e-01	-2.421109e+00	4.573683e+00	0.000000e+00	0	9
	21	1	1	2	503	511	3.966885e-01	-1.054283e+00	-1.053050e-01	1.131355e+00	4.942156e-08	0	9
</event>
<event>
	14 7000 1.000000e+00 5.402662e+01 7.3e-03 0.118
	21	-1	0	0	506	501	0.000000e+00	0.000000e+00	3.524300e+00	3.524300e+00	0.000000e+00	0	9
	21	-1	0	0	501	509	0.000000e+00	0.000000e+00	-2.070536e+02	2.070536e+02	0.000000e+00	0	9
	1	1	1	2	508	0	-8.747578e-01	-4.123198e+00	-7.177373e+00	8.323501e+00	4.800000e-03	0	9
	-1	1	1	2	0	505	2.446816e+00	-1.453434e+00	-5.269583e+00	5.988982e+00	4.800000e-03	0	9
	2	1	1	2	506	0	-4.336518e+00	1.128831e+01	-3.527928e+01	3.729422e+01	2.300000e-03	0	9
	-2	1	1	2	0	504	-1.910417e+00	8.042377e-01	-2.156258e+01	2.166198e+01	2.300000e-03	0	9
	3	1	1	2	507	0	-1.639679e-01	1.391586e+00	-1.755650e+00	2.248272e+00	9.500000e-02	0	9
	-3	1	1	2	0	503	4.542278e-01	-8.157466e-01	-2.165431e+00	2.360059e+00	9.500000e-02	0	9
	4	1	1	2	505	0	4.988289e-01	-5.474719e+00	-1.531999e+01	1.632633e+01	1.275000e+00	0	9
	-4	1	1	2	0	502	-1.772231e+00	3.949495e+00	-4.112028e+01	4.136716e+01	1.275000e+00	0	9
	21	1	1	2	502	507	3.134784e+00	-4.502656e+00	-4.265432e+01	4.300572e+01	8.259062e-07	0	9
	21	1	1	2	510	509	3.112156e+00	-6.220481e-01	-2.164658e+01	2.187800e+01	-4.768372e-07	0	9
	21	1	1	2	503	508	-1.252422e+00	1.037714e+00	-5.481314e+00	5.717536e+00	8.429370e-08	0	9
	21	1	1	2	504	510	6.635011e-01	-1.479536e+00	-4.096886e+00	4.406102e+00	-5.960464e-08	0	9
</event>
<event>
	22 7000 1.000000e+00 5.055170e+01 7.3e-03 0.118
	21	-1	0	0	501	505	0.000000e+00	0.000000e+00	1.351461e+03	1.351461e+03	0.000000e+00	0	9
	21	-1	0	0	513	517	0.000000e+00	0.000000e+00	-4.727243e-01	4.727243e-01	0.000000e+00	0	9
	1	1	1	2	515	0	6.056421e-01	2.417416e-01	1.893508e+01	1.894630e+01	4.800000e-03	0	9
	-1	1	1	2	0	504	-2.177812e+00	-1.089088e+00	1.193964e+02	1.194212e+02	4.800000e-03	0	9
	2	1	1	2	516	0	1.008601e-01	-1.449684e+00	1.585645e+01	1.592290e+01	2.300000e-03	0	9
	-2	1	1	2	0	505	2.171835e+00	-2.221760e+00	2.545437e+02	2.545627e+02	2.300001e-03	0	9
	3	1	1	2	518	0	-1.598601e-01	1.173921e+00	8.966805e+01	8.967592e+01	9.500000e-02	0	9
	-3	1	1	2	0	510	1.753386e+00	-4.899440e-01	1.529823e+02	1.529932e+02	9.500000e-02	0	9
	4	1	1	2	504	0	7.220534e-01	1.371676e-01	6.173789e+00	6.346769e+00	1.275000e+00	0	9
	-4	1	1	2	0	512	-2.121132e+00	4.780422e+00	9.188636e+01	9.204391e+01	1.275000e+00	0	9
	21	1	1	2	506	509	2.088262e+00	-1.750064e+00	2.041542e+02	2.041724e+02	0.000000e+00	0	9
	21	1	1	2	503	514	1.010181e+00	-1.955710e+00	2.564315e+01	2.573745e+01	-3.371748e-07	0	9
	21	1	1	2	507	511	3.941136e-01	5.314562e-01	8.019852e+01	8.020125e+01	9.536743e-07	0	9
	21	1	1	2	513	516	-1.423227e-01	3.394866e-01	2.354158e+01	2.354446e+01	-3.371748e-07	0	9
	21	1	1	2	514	517	-9.476018e-01	7.168795e-01	1.418725e+01	1.423692e+01	2.920019e-07	0	9
	21	1	1	2	502	508	-3.279258e+00	-7.272276e-01	7.704114e+01	7.711433e+01	9.536743e-07	0	9
	21	1	1	2	508	518	-7.484508e-01	-8.253453e-01	3.636060e+01	3.637766e+01	4.768372e-07	0	9
	21	1	1	2	501	506	4.831068e-01	2.847640e-01	7.580812e+00	7.601525e+00	1.192093e-07	0	9
	21	1	1	2	509	503	3.139457e-01	7.277760e-01	3.777198e+01	3.778029e+01	4.768372e-07	0	9
	21	1	1	2	511	515	-1.834772e+00	1.032984e+00	4.769001e+01	4.773647e+01	0.000000e+00	0	9
	21	1	1	2	512	507	1.312698e+00	-5.825882e-01	8.367786e+00	8.490137e+00	-1.685874e-07	0	9
	21	1	1	2	510	502	4.551253e-01	1.124812e+00	3.900929e+01	3.902816e+01	0.000000e+00	0	9
</event>
<event>
	15 7000 1.000000e+00 7.948447e+01 7.3e-03 0.118
	21	-1	0	0	509	502	0.000000e+00	0.000000e+00	2.698956e+01	2.698956e+01	0.000000e+00	0	9
	21	-1	0	0	510	504	0.000000e+00	0.000000e+00	-5.852060e+01	5.852060e+01	0.000000e+00	0	9
	1	1	1	2	503	0	1.777857e+00	-8.948092e-01	-3.980720e+00	4.450575e+00	4.800000e-03	0	9
	-1	1	1	2	0	503	4.287449e+00	7.154314e+00	8.689026e+00	1.204432e+01	4.800000e-03	0	9
	2	1	1	2	501	0	-6.255922e-01	-1.640408e-01	-1.183524e+00	1.348707e+00	2.300000e-03	0	9
	-2	1	1	2	0	505	-1.271819e+00	2.457213e+00	-4.757691e+00	5.503730e+00	2.300000e-03	0	9
	3	1	1	2	506	0	9.436823e-01	-4.564759e-01	9.136641e-01	1.393813e+00	9.500000e-02	0	9
	-3	1	1	2	0	506	-1.002666e+01	-2.966506e+00	-4.442948e-02	1.045682e+01	9.500000e-02	0	9
	4	1	1	2	507	0	2.881108e+00	1.338606e+00	-2.841726e+00	4.449009e+00	1.275000e+00	0	9
	-4	1	1	2	0	504	-5.262337e+00	7.575167e+00	-1.189782e+01	1.510825e+01	1.275000e+00	0	9
	21	1	1	2	511	508	7.627377e+00	-7.625491e+00	-1.664272e+00	1.091306e+01	1.685874e-07	0	9
	21	1	1	2	510	507	5.970609e-01	-7.542439e+00	-9.146409e+00	1.187020e+01	-3.371748e-07	0	9
	21	1	1	2	505	511	1.736579e+00	-5.956209e-01	-1.523674e+00	2.385802e+00	2.980232e-08	0	9
	21	1	1	2	508	501	-2.408062e+00	8.393869e-01	-3.881662e+00	4.644420e+00	5.960464e-08	0	9
	21	1	1	2	509	502	-2.566425e-01	8.806964e-01	-2.118088e-01	9.414641e-01	-1.490116e-08	0	9
</event>
<event>
	19 7000 1.000000e+00 5.902273e+01 7.3e-03 0.118
	21	-1	0	0	503	502	0.000000e+00	0.000000e+00	8.250556e+01	8.250556e+01	0.000000e+00	0	9
	21	-1	0	0	515	510	0.000000e+00	0.000000e+00	-1.055590e+01	1.055590e+01	0.000000e+00	0	9
	1	1	1	2	512	0	-1.505682e+00	4.854000e+00	3.086764e+00	5.946136e+00	4.800000e-03	0	9
	-1	1	1	2	0	505	8.668587e-01	9.393809e-02	-1.216429e+00	1.496660e+00	4.800000e-03	0	9
	2	1	1	2	511	0	-1.717372e+00	-1.863857e+00	4.866616e+00	5.487011e+00	2.300000e-03	0	9
	-2	1	1	2	0	510	-1.160756e+00	-1.759843e+00	5.527075e+00	5.915485e+00	2.300000e-03	0	9
	3	1	1	2	515	0	-4.350726e-02	1.953150e+00	3.620711e+00	4.115247e+00	9.500000e-02	0	9
	-3	1	1	2	0	504	-3.069187e+00	4.214321e+00	2.001489e+01	2.068297e+01	9.500000e-02	0	9
	4	1	1	2	513	0	-1.289412e+00	-2.644828e+00	4.053994e+00	5.168964e+00	1.275000e+00	0	9
	-4	1	1	2	0	507	-1.296356e+00	1.642567e+00	3.843093e+00	4.557802e+00	1.275000e+00	0	9
	21	1	1	2	505	509	1.910472e+00	-9.186855e-01	1.693028e+00	2.712974e+00	-5.161914e-08	0	9
	21	1	1	2	509	513	1.156220e+01	-5.228396e-01	1.044211e+01	1.558832e+01	-3.769729e-07	0	9
	21	1	1	2	503	501	-3.433055e-01	-1.143352e-02	-1.193851e-01	3.636512e-01	-1.290478e-08	0	9
	21	1	1	2	514	502	3.085053e-01	6.286538e-01	3.489797e-01	7.824116e-01	-1.825012e-08	0	9
	21	1	1	2	501	512	-3.539224e+00	-5.732546e+00	8.734114e+00	1.103055e+01	-2.064765e-07	0	9
	21	1	1	2	508	511	-1.174291e+00	1.928941e+00	1.105317e+00	2.514259e+00	-5.960464e-08	0	9
	21	1	1	2	506	508	6.792134e-01	-1.982394e-01	7.568724e-01	1.036091e+00	-2.107342e-08	0	9
	21	1	1	2	504	506	3.245578e-01	-6.879080e-01	3.860258e+00	3.934482e+00	-8.429370e-08	0	9
	21	1	1	2	507	514	-5.127174e-01	-9.753902e-01	1.331642e+00	1.728449e+00	-2.980232e-08	0	9
</event>
<event>
	16 7000 1.000000e+00 5.182924e+01 7.3e-03 0.118
	21	-1	0	0	508	501	0.000000e+00	0.000000e+00	2.879303e+03	2.879303e+03	0.000000e+00	0	9
	21	-1	0	0	507	505	0.000000e+00	0.000000e+00	-2.332397e-01	2.332397e-01	0.000000e+00	0	9
	1	1	1	2	502	0	-8.390917e-01	-2.283061e+00	1.450274e+02	1.450478e+02	4.800000e-03	0	9
	-1	1	1	2	0	510	2.136692e+00	-2.503615e+00	8.758374e+01	8.764556e+01	4.800000e-03	0	9
	2	1	1	2	509	0	2.318386e+00	-6.096905e-01	1.307110e+02	1.307329e+02	2.300000e-03	0	9
	-2	1	1	2	0	505	-1.659306e+00	1.075965e+00	9.301919e+01	9.304022e+01	2.300000e-03	0	9
	3	1	1	2	504	0	-1.459961e+00	1.613522e+00	6.581843e+01	6.585446e+01	9.500000e-02	0	9
	-3	1	1	2	0	504	-1.727116e-01	-5.036777e-01	4.143361e+01	4.143714e+01	9.500000e-02	0	9
	4	1	1	2	506	0	7.788054e-01	5.136800e+00	1.591929e+02	1.592827e+02	1.275000e+00	0	9
	-4	1	1	2	0	509	3.765345e+00	2.779106e-01	4.131986e+02	4.132178e+02	1.275000e+00	0	9
	21	1	1	2	503	502	6.756642e-01	2.110615e+00	3.446647e+01	3.453764e+01	-4.768372e-07	0	9
	21	1	1	2	510	511	-1.098878e+00	-4.136280e+00	4.907716e+02	4.907902e+02	-9.344062e-06	0	9
	21	1	1	2	507	501	-1.100354e+00	-1.644722e+00	2.267455e+02	2.267542e+02	4.672031e-06	0	9
	21	1	1	2	508	512	-1.416819e+00	1.211372e+00	7.975314e+02	7.975336e+02	0.000000e+00	0	9
	21	1	1	2	512	503	-9.135430e-01	2.850004e+00	1.241721e+02	1.242082e+02	-1.348699e-06	0	9
	21	1	1	2	511	506	-1.014227e+00	-2.595142e+00	6.939742e+01	6.945333e+01	0.000000e+00	0	9
</event>
<event>
	18 7000 1.000000e+00 6.427685e+01 7.3e-03 0.118
	21	-1	0	0	502	507	0.000000e+00	0.000000e+00	4.789706e+03	4.789706e+03	0.000000e+00	0	9
	21	-1	0	0	504	505	0.000000e+00	0.000000e+00	-2.156455e-01	2.156455e-01	0.000000e+00	0	9
	1	1	1	2	503	0	1.048058e+00	-3.291724e+00	8.928484e+01	8.935164e+01	4.800001e-03	0	9
	-1	1	1	2	0	506	1.468278e-01	2.247579e+00	9.510342e+01	9.513008e+01	4.800000e-03	0	9
	2	1	1	2	511	0	-2.644602e+00	7.709876e-02	3.280494e+02	3.280601e+02	2.299990e-03	0	9
	-2	1	1	2	0	510	-6.115663e-01	1.701836e-02	2.667450e+01	2.668151e+01	2.300000e-03	0	9
	3	1	1	2	502	0	5.129659e-01	-1.695780e-01	2.377359e+00	2.439826e+00	9.500000e-02	0	9
	-3	1	1	2	0	513	-2.041302e+00	-4.533622e+00	3.631317e+02	3.631658e+02	9.500000e-02	0	9
	4	1	1	2	504	0	2.216371e+00	-5.948214e-01	3.688935e+02	3.689028e+02	1.275000e+00	0	9
	-4	1	1	2	0	503	-3.741555e+00	8.465508e-01	8.932019e+02	8.932110e+02	1.275000e+00	0	9
	21	1	1	2	508	509	-2.062012e+00	-6.375167e-01	6.003940e+02	6.003978e+02	1.078959e-05	0	9
	21	1	1	2	506	512	-8.996873e-01	-1.213097e+00	3.827498e+01	3.830476e+01	0.000000e+00	0	9
	21	1	1	2	512	501	1.760181e+00	2.758020e+00	1.468427e+02	1.468792e+02	2.697398e-06	0	9
	21	1	1	2	510	511	9.314625e+00	-2.256393e+00	6.298443e+02	6.299172e+02	7.629395e-06	0	9
	21	1	1	2	514	507	2.600381e+00	2.154070e+00	3.589184e+02	3.589343e+02	3.814697e-06	0	9
	21	1	1	2	513	508	-3.178084e-01	1.819608e-01	2.060813e+02	2.060816e+02	-3.814697e-06	0	9
	21	1	1	2	501	514	3.864487e-02	1.192913e+00	5.485196e+01	5.486494e+01	-9.536743e-07	0	9
	21	1	1	2	509	505	-5.319519e+00	3.221542e+00	5.875660e+02	5.875990e+02	0.000000e+00	0	9
</event>
<event>
	16 7000 1.000000e+00 5.707819e+01 7.3e-03 0.118
	21	-1	0	0	502	509	0.000000e+00	0.000000e+00	1.777026e+00	1.777026e+00	0.000000e+00	0	9
	21	-1	0	0	504	512	0.000000e+00	0.000000e+00	-4.583388e+02	4.583388e+02	0.000000e+00	0	9
	1	1	1	2	504	0	1.402338e+00	-1.353517e+00	-1.171552e+01	1.187653e+01	4.800000e-03	0	9
	-1	1	1	2	0	512	-2.121480e+00	-1.221282e+00	-6.289872e+00	6.749424e+00	4.800000e-03	0	9
	2	1	1	2	507	0	5.712139e+00	3.278647e+00	-3.001180e+01	3.072599e+01	2.300000e-03	0	9
	-2	1	1	2	0	508	1.356524e+00	2.187169e-01	-9.773927e+00	9.870038e+00	2.300000e-03	0	9
	3	1	1	2	510	0	-2.668419e+00	-4.679025e+00	-4.125948e+01	4.160970e+01	9.500000e-02	0	9
	-3	1	1	2	0	509	-2.803520e+00	-1.527366e+00	-1.619100e+01	1.650304e+01	9.500000e-02	0	9
	4	1	1	2	506	0	-1.056221e+00	-9.708377e-01	-2.388437e+01	2.396136e+01	1.275000e+00	0	9
	-4	1	1	2	0	501	-3.713420e+00	2.049809e+00	-1.465521e+02	1.466190e+02	1.275000e+00	0	9
	21	1	1	2	503	511	-3.322620e+00	4.125516e+00	-4.809852e+01	4.838934e+01	-6.743496e-07	0	9
	21	1	1	2	502	505	-1.644021e-01	-3.313732e-01	-5.409937e-02	3.738488e-01	6.601231e-08	0	9
	21	1	1	2	505	510	2.753500e-02	-6.830583e-01	-2.736485e+01	2.737339e+01	-3.371748e-07	0	9
	21	1	1	2	501	506	1.590056e+00	-2.519398e-01	-4.892590e+01	4.895238e+01	-6.743496e-07	0	9
	21	1	1	2	508	507	1.709219e+00	1.872708e+00	-3.211738e+01	3.221730e+01	-4.768372e-07	0	9
	21	1	1	2	511	503	4.052271e+00	-5.269976e-01	-1.432288e+01	1.489441e+01	-3.371748e-07	0	9
</event>
<event>
	18 7000 1.000000e+00 5.395949e+01 7.3e-03 0.118
	21	-1	0	0	502	507	0.000000e+00	0.000000e+00	8.862375e+01	8.862375e+01	0.000000e+00	0	9
	21	-1	0	0	506	502	0.000000e+00	0.000000e+00	-8.213449e+00	8.213449e+00	0.000000e+00	0	9
	1	1	1	2	511	0	-5.666666e+00	-1.027304e+00	1.289420e+01	1.412186e+01	4.800000e-03	0	9
	-1	1	1	2	0	509	-3.412384e+00	8.765020e-01	2.404978e+00	4.265743e+00	4.800000e-03	0	9
	2	1	1	2	506	0	3.956218e+00	-4.375580e+00	7.270536e+00	9.362588e+00	2.300000e-03	0	9
	-2	1	1	2	0	514	1.969147e+00	-2.508617e+00	3.536953e+00	4.762430e+00	2.300000e-03	0	9
	3	1	1	2	505	0	4.103863e+00	3.435490e+00	5.710615e+00	7.827160e+00	9.500000e-02	0	9
	-3	1	1	2	0	501	-2.686402e+00	3.542353e+00	6.475834e+00	7.855601e+00	9.500000e-02	0	9
	4	1	1	2	509	0	2.006423e+00	5.294583e+00	4.464937e+00	7.322542e+00	1.275000e+00	0	9
	-4	1	1	2	0	512	-3.697994e+00	-3.001147e+00	6.476007e+00	8.139185e+00	1.275000e+00	0	9
	21	1	1	2	510	508	1.818153e+00	-2.436615e+00	5.509828e+00	6.292931e+00	1.192093e-07	0	9
	21	1	1	2	513	511	1.397985e+00	-1.006473e+00	9.112122e+00	9.273517e+00	-1.192093e-07	0	9
	21	1	1	2	512	503	5.332563e-01	7.348423e-01	1.555775e+00	1.801331e+00	-2.107342e-08	0	9
	21	1	1	2	514	510	4.910105e-02	7.656909e-03	1.753103e-01	1.822176e-01	-2.634178e-09	0	9
	21	1	1	2	504	505	3.744545e-01	1.236716e+00	4.212560e+00	4.406285e+00	-8.429370e-08	0	9
	21	1	1	2	501	513	-4.627942e-01	3.457040e-01	5.322668e-02	5.801058e-01	-7.450581e-09	0	9
	21	1	1	2	508	504	-4.150769e-01	-1.133232e+00	9.862383e+00	9.935950e+00	-1.192093e-07	0	9
	21	1	1	2	503	507	1.327169e-01	1.512185e-02	6.950317e-01	7.077510e-01	0.000000e+00	0	9
</event>
<event>
	17 7000 1.000000e+00 5.150590e+01 7.3e-03 0.118
	21	-1	0	0	508	504	0.000000e+00	0.000000e+00	2.647921e+02	2.647921e+02	0.000000e+00	0	9
	21	-1	0	0	513	512	0.000000e+00	0.000000e+00	-2.504661e+00	2.504661e+00	0.000000e+00	0	9
	1	1	1	2	502	0	4.145207e-01	-1.958329e+00	2.549385e+00	3.241337e+00	4.800000e-03	0	9
	-1	1	1	2	0	510	-1.080761e+00	5.332655e-01	1.250845e+01	1.256637e+01	4.800000e-03	0	9
	2	1	1	2	508	0	-1.509609e+00	-2.008591e+00	1.706830e+01	1.725225e+01	2.300000e-03	0	9
	-2	1	1	2	0	506	6.510794e+00	-8.200922e-01	2.013052e+01	2.117311e+01	2.300000e-03	0	9
	3	1	1	2	510	0	-2.321494e+00	2.742184e-01	1.236497e+01	1.258436e+01	9.500000e-02	0	9
	-3	1	1	2	0	511	-1.059310e+00	-1.402327e+00	1.745505e+00	2.478804e+00	9.500000e-02	0	9
	4	1	1	2	513	0	1.866637e-01	-2.504094e+00	1.336192e+01	1.365547e+01	1.275000e+00	0	9
	-4	1	1	2	0	504	-3.175164e+00	-1.096378e+00	1.660931e+01	1.699349e+01	1.275000e+00	0	9
	21	1	1	2	506	503	-1.206969e+00	1.153249e+00	2.280966e+01	2.287067e+01	0.000000e+00	0	9
	21	1	1	2	507	502	2.111183e+00	1.493529e+00	6.931123e+01	6.935946e+01	1.348699e-06	0	9
	21	1	1	2	509	512	6.185043e-01	-5.981974e-02	1.989800e+01	1.990770e+01	3.371748e-07	0	9
	21	1	1	2	505	501	-6.711841e-01	1.168285e-01	5.491101e-01	8.750194e-01	-2.787752e-08	0	9
	21	1	1	2	501	509	-1.857508e+00	4.742740e+00	3.917784e+01	3.950755e+01	0.000000e+00	0	9
	21	1	1	2	511	505	1.169176e-01	1.070732e+00	6.306777e+00	6.398091e+00	-8.429370e-08	0	9
	21	1	1	2	503	507	2.923416e+00	4.650682e-01	7.896486e+00	8.433098e+00	-2.665601e-07	0	9
</event>
<event>
	14 7000 1.000000e+00 5.538219e+01 7.3e-03 0.118
	21	-1	0	0	504	509	0.000000e+00	0.000000e+00	2.491847e+00	2.491847e+00	0.000000e+00	0	9
	21	-1	0	0	503	508	0.000000e+00	0.000000e+00	-3.077222e+02	3.077222e+02	0.000000e+00	0	9
	1	1	1	2	505	0	-3.355642e+00	-2.591983e-01	-1.327601e+01	1.369598e+01	4.800000e-03	0	9
	-1	1	1	2	0	502	4.003652e+00	1.201887e+00	-2.003810e+01	2.046948e+01	4.800000e-03	0	9
	2	1	1	2	510	0	5.199817e-02	-1.554128e+00	-5.500400e+01	5.502597e+01	2.300000e-03	0	9
	-2	1	1	2	0	505	-1.144593e-01	-8.145112e-01	-1.069269e+00	1.349026e+00	2.300000e-03	0	9
	3	1	1	2	504	0	1.286164e+00	7.821805e-01	-1.139746e+00	1.890521e+00	9.500000e-02	0	9
	-3	1	1	2	0	508	-9.136038e-01	-3.383627e+00	-2.305148e+01	2.331659e+01	9.500000e-02	0	9
	4	1	1	2	502	0	4.150043e-02	-1.031383e+00	-1.641516e+01	1.649692e+01	1.275000e+00	0	9
	-4	1	1	2	0	509	-5.143663e-01	-8.819705e-01	-7.784253e+00	7.953783e+00	1.275000e+00	0	9
	21	1	1	2	506	507	7.725462e-01	4.523199e-01	-1.096254e+00	1.415343e+00	5.575504e-08	0	9
	21	1	1	2	503	501	-3.837160e+00	-7.405051e+00	-9.200734e+01	9.238457e+01	0.000000e+00	0	9
	21	1	1	2	501	510	1.506924e+00	1.239928e+01	-7.390713e+01	7.495517e+01	0.000000e+00	0	9
	21	1	1	2	507	506	1.072446e+00	4.942045e-01	-4.416455e-01	1.260726e+00	1.299053e-07	0	9
</event>
<event>
	20 7000 1.000000e+00 5.011107e+01 7.3e-03 0.118
	21	-1	0	0	501	502	0.000000e+00	0.000000e+00	2.368829e+03	2.368829e+03	0.000000e+00	0	9
	21	-1	0	0	512	514	0.000000e+00	0.000000e+00	-2.650169e-01	2.650169e-01	0.000000e+00	0	9
	1	1	1	2	508	0	2.293765e+00	-1.584982e+00	1.701818e+02	1.702046e+02	4.800000e-03	0	9
	-1	1	1	2	0	507	-6.621439e-01	4.738116e-01	1.921011e+01	1.922736e+01	4.800000e-03	0	9
	2	1	1	2	507	0	-1.679464e+00	-8.915262e-01	7.941199e+01	7.943475e+01	2.300001e-03	0	9
	-2	1	1	2	0	516	-1.970760e+00	2.519970e+00	8.525992e+01	8.531992e+01	2.300001e-03	0	9
	3	1	1	2	509	0	2.010345e+00	-2.769648e+00	1.144628e+02	1.145140e+02	9.500000e-02	0	9
	-3	1	1	2	0	504	1.131855e+00	-1.653397e+00	1.087184e+02	1.087369e+02	9.500000e-02	0	9
	4	1	1	2	506	0	-1.002987e+00	1.070500e+00	2.963441e+02	2.963505e+02	1.275000e+00	0	9
	-4	1	1	2	0	503	1.680544e-01	-4.894430e-01	2.706731e+01	2.710226e+01	1.275000e+00	0	9
	21	1	1	2	511	505	-1.372715e+00	1.070995e+00	2.086619e+01	2.093870e+01	8.259062e-07	0	9
	21	1	1	2	505	513	3.093766e+00	1.996341e+00	3.198600e+02	3.198812e+02	-3.814697e-06	0	9
	21	1	1	2	515	514	1.713873e+00	8.539704e-01	8.728191e+01	8.730291e+01	1.348699e-06	0	9
	21	1	1	2	504	502	6.874736e-01	6.161184e-01	2.675444e+01	2.677036e+01	0.000000e+00	0	9
	21	1	1	2	516	506	-3.338846e-01	3.804180e+00	2.214863e+02	2.215192e+02	0.000000e+00	0	9
	21	1	1	2	512	510	-4.453705e-01	-2.098082e-01	4.930736e+00	4.955253e+00	1.576991e-07	0	9
	21	1	1	2	510	515	-5.507771e+00	1.413727e+00	3.603098e+02	3.603547e+02	5.394797e-06	0	9
	21	1	1	2	513	509	1.257945e+00	-2.171129e+00	9.704314e+01	9.707558e+01	0.000000e+00	0	9
	21	1	1	2	503	508	7.891794e-01	-2.998426e+00	1.775612e+02	1.775883e+02	2.697398e-06	0	9
	21	1	1	2	501	511	-1.711602e-01	-1.051255e+00	1.518138e+02	1.518175e+02	2.697398e-06	0	9
</event>
<event>
	18 7000 1.000000e+00 6.072597e+01 7.3e-03 0.118
	21	-1	0	0	511	502	0.000000e+00	0.000000e+00	6.803754e+01	6.803754e+01	0.000000e+00	0	9
	21	-1	0	0	513	506	0.000000e+00	0.000000e+00	-1.355003e+01	1.355003e+01	0.000000e+00	0	9
	1	1	1	2	509	0	4.540855e+00	1.240330e-01	1.022554e+01	1.118912e+01	4.800000e-03	0	9
	-1	1	1	2	0	508	-7.891934e-01	-1.152510e+00	-8.229152e-02	1.399250e+00	4.800000e-03	0	9
	2	1	1	2	508	0	6.206364e+00	2.557848e+00	4.979276e+00	8.357915e+00	2.300000e-03	0	9
	-2	1	1	2	0	510	1.377508e+00	2.009316e+00	1.698275e+00	2.969684e+00	2.300000e-03	0	9
	3	1	1	2	507	0	1.188365e+00	-4.161104e-01	3.919582e-01	1.322125e+00	9.500000e-02	0	9
	-3	1	1	2	0	505	2.706653e+00	7.903157e-02	1.679243e+00	3.187648e+00	9.500000e-02	0	9
	4	1	1	2	513	0	-6.550025e+00	-1.028680e+00	1.061272e+01	1.257841e+01	1.275000e+00	0	9
	-4	1	1	2	0	501	-1.835467e+00	-2.315120e+00	6.038581e+00	6.842427e+00	1.275000e+00	0	9
	21	1	1	2	503	512	1.580088e+00	-1.328983e+00	3.524165e+00	4.084436e+00	-5.960464e-08	0	9
	21	1	1	2	501	509	-2.659945e+00	-4.401743e+00	1.804775e+00	5.450491e+00	1.192093e-07	0	9
	21	1	1	2	512	504	1.588078e+00	6.332648e-02	3.115209e+00	3.497217e+00	8.429370e-08	0	9
	21	1	1	2	514	507	-3.420427e+00	1.125009e+00	-8.501149e-01	3.699684e+00	1.397853e-07	0	9
	21	1	1	2	511	506	6.919508e-01	2.086838e-01	3.592984e-01	8.071184e-01	0.000000e+00	0	9
	21	1	1	2	510	503	-3.784562e+00	7.420553e-01	1.143603e+01	1.206882e+01	0.000000e+00	0	9
	21	1	1	2	504	514	-7.176256e-01	1.279356e+00	4.233098e-01	1.526738e+00	5.161914e-08	0	9
	21	1	1	2	505	502	-1.226162e-01	2.454487e+00	-8.684710e-01	2.606488e+00	5.960464e-08	0	9
</event>
<event>
	17 7000 1.000000e+00 5.611860e+01 7.3e-03 0.118
	21	-1	0	0	503	501	0.000000e+00	0.000000e+00	4.967777e+01	4.967777e+01	0.000000e+00	0	9
	21	-1	0	0	512	509	0.000000e+00	0.000000e+00	-1.584863e+01	1.584863e+01	0.000000e+00	0	9
	1	1	1	2	512	0	2.929322e-01	-7.649090e-01	3.169773e-01	8.782896e-01	4.800000e-03	0	9
	-1	1	1	2	0	507	2.638812e-02	1.064586e-01	-1.044939e-02	1.102815e-01	4.800000e-03	0	9
	2	1	1	2	507	0	-1.011007e+00	-2.116814e-02	1.870471e-01	1.028385e+00	2.300000e-03	0	9
	-2	1	1	2	0	502	-2.011355e-01	3.072029e+00	2.394797e+00	3.900369e+00	2.300000e-03	0	9
	3	1	1	2	508	0	-2.444980e+00	1.073710e+00	4.016829e+00	4.824388e+00	9.500000e-02	0	9
	-3	1	1	2	0	513	1.259439e+00	-8.511913e-01	1.751614e+00	2.321183e+00	9.500000e-02	0	9
	4	1	1	2	505	0	2.144543e-02	1.778151e+00	8.554175e-01	2.349393e+00	1.275000e+00	0	9
	-4	1	1	2	0	505	3.830226e-01	4.392233e+00	4.298140e-01	4.609640e+00	1.275000e+00	0	9
	21	1	1	2	513	511	1.067455e+00	6.184181e-02	1.292014e+00	1.677076e+00	2.107342e-08	0	9
	21	1	1	2	511	508	1.992596e+00	-8.217383e-01	3.501063e+00	4.111343e+00	-5.960464e-08	0	9
	21	1	1	2	510	504	4.282825e+00	3.969062e+00	8.833856e-01	5.905626e+00	-8.429370e-08	0	9
	21	1	1	2	503	501	-1.456674e+00	-9.577109e+00	-1.438605e+00	9.793493e+00	-3.371748e-07	0	9
	21	1	1	2	506	510	-5.018650e+00	3.325135e+00	9.395231e+00	1.115857e+01	-2.064765e-07	0	9
	21	1	1	2	504	506	-1.403165e+00	-3.167481e+00	8.175696e+00	8.879404e+00	-1.685874e-07	0	9
	21	1	1	2	502	509	2.209507e+00	-2.575026e+00	2.078310e+00	3.978951e+00	-5.960464e-08	0	9
</event>
<event>
	18 7000 1.000000e+00 5.658443e+01 7.3e-03 0.118
	21	-1	0	0	508	512	0.000000e+00	0.000000e+00	1.019300e+02	1.019300e+02	0.000000e+00	0	9
	21	-1	0	0	512	505	0.000000e+00	0.000000e+00	-7.852929e+00	7.852929e+00	0.000000e+00	0	9
	1	1	1	2	508	0	3.184986e+00	-8.149848e-01	6.498751e+00	7.283003e+00	4.800000e-03	0	9
	-1	1	1	2	0	507	2.298425e+00	2.339474e+00	7.039884e-01	3.354329e+00	4.800000e-03	0	9
	2	1	1	2	507	0	4.078116e-01	-4.590576e-01	3.464973e+00	3.518961e+00	2.300000e-03	0	9
	-2	1	1	2	0	509	-2.294034e-01	-3.677670e+00	4.416650e+00	5.751930e+00	2.300000e-03	0	9
	3	1	1	2	506	0	4.545672e-01	5.533850e-02	3.216001e+00	3.249827e+00	9.500000e-02	0	9
	-3	1	1	2	0	513	-4.326122e+00	1.052343e-02	1.104370e+01	1.186118e+01	9.500000e-02	0	9
	4	1	1	2	501	0	-7.762646e-01	-3.191970e-01	7.058534e+00	7.221703e+00	1.275000e+00	0	9
	-4	1	1	2	0	501	-1.286020e+00	1.134656e+00	7.044482e+00	7.361498e+00	1.275000e+00	0	9
	21	1	1	2	514	511	-2.609069e+00	-2.755372e+00	1.529018e+00	4.091114e+00	0.000000e+00	0	9
	21	1	1	2	502	504	1.375705e+00	1.332842e+00	1.327163e+00	2.330320e+00	-4.214685e-08	0	9
	21	1	1	2	503	510	-4.022270e+00	2.733880e+00	1.064614e+01	1.170440e+01	-1.685874e-07	0	9
	21	1	1	2	510	502	2.357001e+00	-1.020900e+00	2.460129e-01	2.580352e+00	-5.960464e-08	0	9
	21	1	1	2	513	503	4.918347e-01	1.111110e+00	-6.661126e-01	1.385703e+00	-8.296615e-08	0	9
	21	1	1	2	511	514	-1.036086e+00	1.940943e-01	2.497784e+00	2.711102e+00	0.000000e+00	0	9
	21	1	1	2	509	506	4.868240e-01	-1.064866e+00	5.239525e+00	5.368757e+00	1.332800e-07	0	9
	21	1	1	2	504	505	3.228079e+00	1.200130e+00	2.981051e+01	3.000879e+01	0.000000e+00	0	9
</event>
<event>
	16 7000 1.000000e+00 5.056322e+01 7.3e-03 0.118
	21	-1	0	0	510	509	0.000000e+00	0.000000e+00	1.479258e+02	1.479258e+02	0.000000e+00	0	9
	21	-1	0	0	503	510	0.000000e+00	0.000000e+00	-4.320813e+00	4.320813e+00	0.000000e+00	0	9
	1	1	1	2	503	0	-5.770251e-01	-1.854621e+00	3.364248e+00	3.884684e+00	4.800000e-03	0	9
	-1	1	1	2	0	505	-1.657813e+00	-2.759318e+00	2.561670e+00	4.113922e+00	4.800000e-03	0	9
	2	1	1	2	502	0	9.368089e-01	3.425806e-01	1.573720e+00	1.863215e+00	2.300000e-03	0	9
	-2	1	1	2	0	504	1.699082e+00	-1.615972e+00	5.379826e+01	5.384934e+01	2.300000e-03	0	9
	3	1	1	2	507	0	-9.454721e-01	7.228054e-01	2.953551e+01	2.955963e+01	9.500000e-02	0	9
	-3	1	1	2	0	507	-5.478457e-01	5.711924e-01	-1.241069e-02	7.972294e-01	9.500000e-02	0	9
	4	1	1	2	512	0	2.928389e+00	2.574323e+00	7.296340e+00	8.370472e+00	1.275000e+00	0	9
	-4	1	1	2	0	508	-4.727885e-01	1.525821e-01	4.319310e+00	4.530880e+00	1.275000e+00	0	9
	21	1	1	2	511	506	1.294915e+00	3.883437e+00	1.068766e+01	1.144482e+01	1.685874e-07	0	9
	21	1	1	2	508	512	-1.015585e+00	7.898602e-01	8.104342e-01	1.520558e+00	0.000000e+00	0	9
	21	1	1	2	505	509	2.382226e+00	8.692584e-01	1.360981e+01	1.384405e+01	1.685874e-07	0	9
	21	1	1	2	506	501	-1.088599e+00	-3.097365e+00	9.317650e+00	9.879135e+00	1.685874e-07	0	9
	21	1	1	2	504	511	-6.874865e-01	-1.139638e+00	6.013389e+00	6.158917e+00	0.000000e+00	0	9
	21	1	1	2	501	502	-2.248806e+00	5.608763e-01	7.293842e-01	2.429755e+00	5.960464e-08	0	9
</event>
<event>
	16 7000 1.000000e+00 7.682671e+01 7.3e-03 0.118
	21	-1	0	0	507	509	0.000000e+00	0.000000e+00	4.348296e+01	4.348296e+01	0.000000e+00	0	9
	21	-1	0	0	510	502	0.000000e+00	0.000000e+00	-3.393481e+01	3.393481e+01	0.000000e+00	0	9
	1	1	1	2	508	0	-2.854284e+00	-1.016248e+00	1.742529e+00	3.495158e+00	4.800000e-03	0	9
	-1	1	1	2	0	511	-6.099314e-01	2.614310e-01	-3.512920e+00	3.575051e+00	4.800000e-03	0	9
	2	1	1	2	510	0	-2.934916e+00	2.159980e+00	-1.168738e+00	3.826905e+00	2.300000e-03	0	9
	-2	1	1	2	0	509	1.553857e-01	-7.588324e+00	9.351851e+00	1.204425e+01	2.300000e-03	0	9
	3	1	1	2	512	0	8.162873e+00	2.298422e+00	1.125699e+01	1.409411e+01	9.500000e-02	0	9
	-3	1	1	2	0	506	2.397380e+00	3.129905e+00	8.796168e-02	3.944680e+00	9.500000e-02	0	9
	4	1	1	2	504	0	5.318745e+00	-1.277561e+00	-5.403414e+00	7.793826e+00	1.275000e+00	0	9
	-4	1	1	2	0	501	-6.624898e+00	5.249656e+00	-1.330430e+00	8.651232e+00	1.275000e+00	0	9
	21	1	1	2	511	503	-1.099765e+00	-3.838538e+00	2.939491e+00	4.958272e+00	8.429370e-08	0	9
	21	1	1	2	503	508	-1.979246e+00	1.798846e+00	-2.057692e+00	3.374516e+00	5.960464e-08	0	9
	21	1	1	2	505	512	-3.492470e-01	9.074114e-01	-8.006149e-01	1.259505e+00	2.980232e-08	0	9
	21	1	1	2	507	504	-2.347467e+00	2.222992e+00	-9.786009e-02	3.234481e+00	0.000000e+00	0	9
	21	1	1	2	501	505	2.417607e+00	-2.617081e-01	7.473342e-01	2.543978e+00	-2.980232e-08	0	9
	21	1	1	2	506	502	3.477633e-01	-4.046264e+00	-2.206327e+00	4.621804e+00	0.000000e+00	0	9
</event>
<event>
	17 7000 1.000000e+00 6.407542e+01 7.3e-03 0.118
	21	-1	0	0	506	505	0.000000e+00	0.000000e+00	6.307580e-01	6.307580e-01	0.000000e+00	0	9
	21	-1	0	0	502	509	0.000000e+00	0.000000e+00	-1.627272e+03	1.627272e+03	0.000000e+00	0	9
	1	1	1	2	501	0	6.981591e-01	1.051537e+00	-7.325497e+00	7.433443e+00	4.800000e-03	0	9
	-1	1	1	2	0	501	-4.110444e+00	1.343880e+00	-7.623966e+01	7.636221e+01	4.800000e-03	0	9
	2	1	1	2	511	0	-3.158304e+00	3.425110e+00	-7.854498e+01	7.868304e+01	2.300000e-03	0	9
	-2	1	1	2	0	510	-5.125292e-01	7.859170e-01	-3.080951e+00	3.220655e+00	2.300000e-03	0	9
	3	1	1	2	512	0	1.790682e-01	-5.061646e-02	-4.285887e-01	4.768026e-01	9.500000e-02	0	9
	-3	1	1	2	0	503	4.811739e+00	-1.708871e+00	-8.779747e+01	8.794588e+01	9.500000e-02	0	9
	4	1	1	2	510	0	-4.637412e-01	1.161272e+00	-4.420310e+01	4.423917e+01	1.275000e+00	0	9
	-4	1	1	2	0	508	-3.296165e+00	-4.752094e+00	-1.929522e+02	1.930431e+02	1.275000e+00	0	9
	21	1	1	2	502	505	4.938620e+00	4.147752e+00	-4.190624e+02	4.191121e+02	0.000000e+00	0	9
	21	1	1	2	507	509	3.638929e+00	-1.482937e+00	-2.941558e+02	2.941821e+02	0.000000e+00	0	9
	21	1	1	2	503	513	-1.821950e+00	-5.992042e+00	-2.620506e+02	2.621254e+02	5.394797e-06	0	9
	21	1	1	2	504	512	1.603796e+00	-4.448779e-01	-7.392975e+01	7.394848e+01	0.000000e+00	0	9
	21	1	1	2	508	511	-3.489033e+00	2.792834e+00	-6.337572e+01	6.353310e+01	-9.536743e-07	0	9
	21	1	1	2	513	504	-3.009192e-01	-7.652003e-01	-7.946475e+00	7.988902e+00	2.064765e-07	0	9
	21	1	1	2	506	507	1.282775e+00	4.883373e-01	-1.554786e+01	1.560833e+01	0.000000e+00	0	9
</event>
<event>
	14 7000 1.000000e+00 5.402553e+01 7.3e-03 0.118
	21	-1	0	0	508	505	0.000000e+00	0.000000e+00	1.702483e+02	1.702483e+02	0.000000e+00	0	9
	21	-1	0	0	504	506	0.000000e+00	0.000000e+00	-4.286031e+00	4.286031e+00	0.000000e+00	0	9
	1	1	1	2	507	0	4.943127e+00	-1.405176e+00	1.028920e+01	1.150116e+01	4.800000e-03	0	9
	-1	1	1	2	0	501	-1.154982e+01	-2.409995e+00	2.905639e+01	3.136049e+01	4.800000e-03	0	9
	2	1	1	2	509	0	-7.271100e-01	2.025279e+00	5.474622e+00	5.882342e+00	2.300000e-03	0	9
	-2	1	1	2	0	502	-1.387540e+00	-1.778838e+00	2.006746e+01	2.019387e+01	2.300000e-03	0	9
	3	1	1	2	503	0	8.923410e-01	2.815107e+00	1.297674e+01	1.330887e+01	9.500000e-02	0	9
	-3	1	1	2	0	510	-1.274598e+00	3.400647e-01	1.087864e+00	1.712518e+00	9.500000e-02	0	9
	4	1	1	2	502	0	1.216685e+00	2.242319e-01	4.210083e+00	4.569576e+00	1.275000e+00	0	9
	-4	1	1	2	0	506	1.011574e-01	-1.555453e-01	1.998943e+01	2.003091e+01	1.275000e+00	0	9
	21	1	1	2	504	507	2.534193e+00	2.788375e+00	2.701659e+01	2.727807e+01	3.371748e-07	0	9
	21	1	1	2	508	503	3.119546e+00	-3.601043e+00	3.033121e+01	3.070312e+01	3.371748e-07	0	9
	21	1	1	2	501	509	2.140545e+00	3.137284e+00	4.107326e+00	5.594158e+00	1.192093e-07	0	9
	21	1	1	2	510	505	-8.530474e-03	-1.979744e+00	1.355371e+00	2.399269e+00	0.000000e+00	0	9
</event>
<event>
	16 7000 1.000000e+00 5.762993e+01 7.3e-03 0.118
	21	-1	0	0	506	508	0.000000e+00	0.000000e+00	5.335164e+00	5.335164e+00	0.000000e+00	0	9
	21	-1	0	0	512	503	0.000000e+00	0.000000e+00	-1.556282e+02	1.556282e+02	0.000000e+00	0	9
	1	1	1	2	507	0	4.432899e+00	1.609994e+00	-8.164988e+00	9.429195e+00	4.800000e-03	0	9
	-1	1	1	2	0	508	4.794501e-01	7.592190e-01	8.859868e-02	9.023074e-01	4.800000e-03	0	9
	2	1	1	2	506	0	-1.851112e+00	-8.131522e-02	-5.331760e+00	5.644546e+00	2.300000e-03	0	9
	-2	1	1	2	0	505	-2.198128e+00	3.003771e+00	-7.107377e+00	8.023043e+00	2.300000e-03	0	9
	3	1	1	2	501	0	3.710918e+00	-1.675508e+00	-6.613374e+00	7.766851e+00	9.500000e-02	0	9
	-3	1	1	2	0	501	-4.781111e+00	1.191248e+00	-2.374251e+00	5.470300e+00	9.500000e-02	0	9
	4	1	1	2	505	0	-8.824235e-01	-1.535794e+00	-1.076171e+01	1.098078e+01	1.275000e+00	0	9
	-4	1	1	2	0	510	1.308073e-02	6.566652e-01	-2.222495e+01	2.227118e+01	1.275000e+00	0	9
	21	1	1	2	511	507	-1.762111e-01	-7.782647e-01	-2.396693e-01	8.331793e-01	-1.825012e-08	0	9
	21	1	1	2	512	511	-3.894838e+00	-6.510754e+00	-2.095955e+01	2.229041e+01	-2.384186e-07	0	9
	21	1	1	2	509	502	1.229797e+00	-1.010556e+00	-1.981806e+01	1.988188e+01	3.371748e-07	0	9
	21	1	1	2	510	504	1.124200e+00	2.647969e+00	-2.918483e+01	2.932627e+01	-3.371748e-07	0	9
	21	1	1	2	502	503	8.480954e-01	1.340879e+00	-2.868688e+00	3.278200e+00	5.960464e-08	0	9
	21	1	1	2	504	509	1.945385e+00	3.824460e-01	-1.473244e+01	1.486525e+01	1.685874e-07	0	9
</event>
<event>
	19 7000 1.000000e+00 5.012322e+01 7.3e-03 0.118
	21	-1	0	0	509	503	0.000000e+00	0.000000e+00	7.672759e+00	7.672759e+00	0.000000e+00	0	9
	21	-1	0	0	501	511	0.000000e+00	0.000000e+00	-8.185899e+01	8.185899e+01	0.000000e+00	0	9
	1	1	1	2	515	0	9.774204e-01	3.398726e+00	-3.722725e+00	5.134724e+00	4.800000e-03	0	9
	-1	1	1	2	0	503	-1.227767e+00	-5.929608e-01	-3.228316e+00	3.504435e+00	4.800000e-03	0	9
	2	1	1	2	510	0	5.982383e-01	-3.859578e-01	-8.108019e-01	1.079008e+00	2.300000e-03	0	9
	-2	1	1	2	0	502	5.589084e-02	6.591244e-01	-7.602732e-01	1.007765e+00	2.300000e-03	0	9
	3	1	1	2	509	0	-8.172100e-01	-3.509285e-01	2.479132e+00	2.635546e+00	9.500000e-02	0	9
	-3	1	1	2	0	506	5.671282e+00	-7.941437e-01	-6.688503e+00	8.805635e+00	9.500000e-02	0	9
	4	1	1	2	512	0	-3.676572e+00	-7.308285e-01	-6.236603e+00	7.387295e+00	1.275000e+00	0	9
	-4	1	1	2	0	507	-1.772048e-01	-1.383840e+00	-3.271048e+00	3.777803e+00	1.275000e+00	0	9
	21	1	1	2	507	504	-1.995754e-02	1.284201e+00	-4.490465e+00	4.670529e+00	-5.960464e-08	0	9
	21	1	1	2	514	510	-8.543031e-01	-1.678152e+00	-2.348077e+00	3.009899e+00	0.000000e+00	0	9
	21	1	1	2	501	508	7.428117e-01	-1.281691e+00	-6.842860e+00	7.001374e+00	0.000000e+00	0	9
	21	1	1	2	505	515	-4.335307e+00	9.193631e-01	-7.082349e+00	8.354626e+00	-1.685874e-07	0	9
	21	1	1	2	508	513	2.229488e+00	-2.575639e-01	-4.573494e+00	5.094487e+00	0.000000e+00	0	9
	21	1	1	2	513	514	1.555410e+00	1.745448e+00	-5.672476e+00	6.135379e+00	-8.429370e-08	0	9
	21	1	1	2	506	505	5.771856e-01	-6.412306e-01	-3.430548e-01	9.284430e-01	2.356080e-08	0	9
	21	1	1	2	502	511	2.288417e-01	7.461974e-01	-7.226669e-01	1.063685e+00	0.000000e+00	0	9
	21	1	1	2	504	512	-1.528247e+00	-6.557636e-01	-1.987165e+01	1.994111e+01	-3.371748e-07	0	9
</event>
<event>
	22 7000 1.000000e+00 5.425292e+01 7.3e-03 0.118
	21	-1	0	0	510	501	0.000000e+00	0.000000e+00	2.262350e+00	2.262350e+00	0.000000e+00	0	9
	21	-1	0	0	513	518	0.000000e+00	0.000000e+00	-3.252568e+02	3.252568e+02	0.000000e+00	0	9
	1	1	1	2	502	0	7.747709e-01	-4.578894e-01	-6.293161e+00	6.357188e+00	4.800000e-03	0	9
	-1	1	1	2	0	514	-1.156248e-01	-2.400663e+00	-6.344966e+00	6.784922e+00	4.800000e-03	0	9
	2	1	1	2	512	0	-2.340486e+00	-9.771009e-01	-3.517740e+01	3.526871e+01	2.300000e-03	0	9
	-2	1	1	2	0	502	-1.314112e+00	1.940733e+00	-7.622682e+00	7.974875e+00	2.300000e-03	0	9
	3	1	1	2	510	0	2.544571e+00	1.388732e-01	-2.933847e+01	2.944909e+01	9.500000e-02	0	9
	-3	1	1	2	0	512	-2.607699e-01	2.033408e+00	-1.614607e+01	1.627597e+01	9.500000e-02	0	9
	4	1	1	2	511	0	3.687368e+00	2.804457e-01	-7.385204e+01	7.395556e+01	1.275000e+00	0	9
	-4	1	1	2	0	516	-3.019050e+00	-3.827826e+00	-4.265314e+01	4.294977e+01	1.275000e+00	0	9
	21	1	1	2	506	508	4.959132e-01	3.591531e-01	-5.982058e+00	6.013313e+00	0.000000e+00	0	9
	21	1	1	2	513	515	1.245741e+00	-6.974347e-01	-2.148969e+00	2.579991e+00	1.519626e-07	0	9
	21	1	1	2	508	518	-1.983403e+00	3.380957e+00	-2.340527e+01	2.373124e+01	3.371748e-07	0	9
	21	1	1	2	504	505	2.287006e+00	1.474729e+00	-1.016596e+01	1.052387e+01	2.920019e-07	0	9
	21	1	1	2	503	504	-3.896547e-01	-6.282940e-01	-1.934864e+01	1.936276e+01	-3.371748e-07	0	9
	21	1	1	2	507	503	1.209147e+00	2.406013e-01	-1.908185e+00	2.271804e+00	5.960464e-08	0	9
	21	1	1	2	514	509	-4.739582e-01	1.180095e+00	-3.339643e+00	3.573580e+00	1.115101e-07	0	9
	21	1	1	2	517	507	-9.490495e-01	-6.094293e-01	-3.274908e+00	3.463686e+00	7.300048e-08	0	9
	21	1	1	2	505	506	-1.399423e+00	7.945936e-01	-7.921430e+00	8.083243e+00	1.192093e-07	0	9
	21	1	1	2	516	511	1.801043e-01	-2.504931e+00	-1.439440e+01	1.461184e+01	2.384186e-07	0	9
	21	1	1	2	509	501	2.616593e-01	1.725221e+00	-1.153595e+01	1.166718e+01	1.685874e-07	0	9
	21	1	1	2	515	517	-4.407491e-01	-1.445240e+00	-2.141125e+00	2.620571e+00	1.032383e-07	0	9
</event>
<event>
	15 7000 1.000000e+00 5.159376e+01 7.3e-03 0.118
	21	-1	0	0	503	502	0.000000e+00	0.000000e+00	1.616969e+01	1.616969e+01	0.000000e+00	0	9
	21	-1	0	0	505	510	0.000000e+00	0.000000e+00	-4.115597e+01	4.115597e+01	0.000000e+00	0	9
	1	1	1	2	503	0	1.527800e+00	-2.892585e+00	-2.064987e+00	3.868516e+00	4.800000e-03	0	9
	-1	1	1	2	0	504	1.934836e+00	-5.073286e+00	-6.303908e+00	8.319922e+00	4.800000e-03	0	9
	2	1	1	2	508	0	-3.207517e+00	4.262882e-01	3.779988e-01	3.257725e+00	2.300000e-03	0	9
	-2	1	1	2	0	510	-2.730214e+00	1.410393e+00	2.682592e+00	4.079165e+00	2.300000e-03	0	9
	3	1	1	2	507	0	1.982424e+00	-3.147017e+00	-4.978983e-01	3.753751e+00	9.500000e-02	0	9
	-3	1	1	2	0	506	-1.381875e+00	3.409218e-01	-2.155999e-01	1.442676e+00	9.500000e-02	0	9
	4	1	1	2	509	0	-5.727505e-01	3.632600e+00	-1.063219e+01	1.132223e+01	1.275000e+00	0	9
	-4	1	1	2	0	501	-4.282450e+00	1.887369e+00	4.383639e-01	4.870249e+00	1.275000e+00	0	9
	21	1	1	2	511	507	4.575934e-01	4.546047e-01	-3.951856e-01	7.564581e-01	1.053671e-08	0	9
	21	1	1	2	504	509	-3.424788e-01	-7.089992e-01	-9.450759e-01	1.230098e+00	-1.490116e-08	0	9
	21	1	1	2	505	508	1.624599e+00	8.682963e-02	-1.013330e+00	1.916689e+00	-4.214685e-08	0	9
	21	1	1	2	506	502	-2.396461e+00	8.281349e-01	-2.967074e+00	3.902865e+00	4.214685e-08	0	9
	21	1	1	2	501	511	7.386493e+00	2.754747e+00	-3.449991e+00	8.605310e+00	0.000000e+00	0	9
</event>
<event>
	16 7000 1.000000e+00 5.123505e+01 7.3e-03 0.118
	21	-1	0	0	507	510	0.000000e+00	0.000000e+00	2.646693e+02	2.646693e+02	0.000000e+00	0	9
	21	-1	0	0	504	508	0.000000e+00	0.000000e+00	-2.479539e+00	2.479539e+00	0.000000e+00	0	9
	1	1	1	2	502	0	5.036352e-01	-5.089866e+00	3.986198e+01	4.018878e+01	4.800000e-03	0	9
	-1	1	1	2	0	505	-2.080894e-01	2.943694e-01	2.807640e+00	2.830692e+00	4.800000e-03	0	9
	2	1	1	2	506	0	2.094946e+00	4.456939e+00	2.512700e+01	2.560507e+01	2.300000e-03	0	9
	-2	1	1	2	0	503	-1.054103e+00	-1.991805e-01	9.121102e+00	9.183970e+00	2.300000e-03	0	9
	3	1	1	2	512	0	2.264861e+00	-1.152419e+00	4.485391e+01	4.492594e+01	9.500000e-02	0	9
	-3	1	1	2	0	501	-7.799473e-01	8.628853e-01	6.022834e+00	6.134855e+00	9.500000e-02	0	9
	4	1	1	2	503	0	-3.755332e+00	4.305485e+00	3.004567e+01	3.061058e+01	1.275000e+00	0	9
	-4	1	1	2	0	512	-8.345978e-01	-2.211236e+00	3.605528e+01	3.615515e+01	1.275000e+00	0	9
	21	1	1	2	511	509	-3.379927e+00	7.018170e-01	1.620425e+00	3.813428e+00	-1.976862e-07	0	9
	21	1	1	2	507	508	1.853256e+00	-9.289115e-01	1.236462e+01	1.253720e+01	2.384186e-07	0	9
	21	1	1	2	505	502	-2.271907e+00	4.463945e-01	6.946911e+00	7.322595e+00	-8.429370e-08	0	9
	21	1	1	2	501	511	3.626632e-01	-1.333326e+00	7.575582e+00	7.700567e+00	-8.429370e-08	0	9
	21	1	1	2	504	506	9.800359e-01	-1.530600e-01	1.103964e+01	1.108411e+01	-1.192093e-07	0	9
	21	1	1	2	509	510	4.224507e+00	1.087647e-04	2.874713e+01	2.905587e+01	-3.371748e-07	0	9
</event>
<event>
	15 7000 1.000000e+00 5.112991e+01 7.3e-03 0.118
	21	-1	0	0	503	510	0.000000e+00	0.000000e+00	4.610006e-01	4.610006e-01	0.000000e+00	0	9
	21	-1	0	0	506	503	0.000000e+00	0.000000e+00	-1.417714e+03	1.417714e+03	0.000000e+00	0	9
	1	1	1	2	501	0	1.721915e+00	4.486815e-01	-7.334932e+01	7.337091e+01	4.800000e-03	0	9
	-1	1	1	2	0	510	1.478910e+00	-1.569821e+00	-3.187151e+01	3.194440e+01	4.800000e-03	0	9
	2	1	1	2	502	0	-6.286917e-01	-5.651960e-01	-4.277845e+00	4.360580e+00	2.300000e-03	0	9
	-2	1	1	2	0	502	7.909692e-01	3.398003e+00	-6.317146e+01	6.326773e+01	2.300000e-03	0	9
	3	1	1	2	511	0	-2.694007e+00	1.565092e+00	-6.491513e+01	6.498992e+01	9.500000e-02	0	9
	-3	1	1	2	0	505	5.274361e+00	-9.695782e-01	-5.278673e+02	5.278945e+02	9.500000e-02	0	9
	4	1	1	2	509	0	-8.286840e-02	-2.193252e+00	-2.531240e+01	2.543935e+01	1.275000e+00	0	9
	-4	1	1	2	0	509	-5.699258e-01	4.520231e-01	-5.710696e+01	5.712583e+01	1.275000e+00	0	9
	21	1	1	2	505	507	3.812681e+00	1.255572e-01	-1.304412e+02	1.304970e+02	2.697398e-06	0	9
	21	1	1	2	508	504	-3.651560e+00	-1.588527e+00	-5.796382e+01	5.810045e+01	-6.743496e-07	0	9
	21	1	1	2	506	501	-5.680041e-02	2.005021e+00	-1.562392e+01	1.575215e+01	-5.057622e-07	0	9
	21	1	1	2	507	508	-2.871971e+00	2.105824e+00	-1.734758e+02	1.735123e+02	-2.697398e-06	0	9
	21	1	1	2	504	511	-2.523011e+00	-3.213827e+00	-1.918762e+02	1.919197e+02	2.697398e-06	0	9
</event>
<event>
	19 7000 1.000000e+00 5.884869e+01 7.3e-03 0.118
	21	-1	0	0	509	508	0.000000e+00	0.000000e+00	6.697872e-01	6.697872e-01	0.000000e+00	0	9
	21	-1	0	0	511	504	0.000000e+00	0.000000e+00	-1.292638e+03	1.292638e+03	0.000000e+00	0	9
	1	1	1	2	501	0	6.122319e-01	1.732401e+00	-4.101509e+01	4.105623e+01	4.800000e-03	0	9
	-1	1	1	2	0	512	3.923337e-02	-4.971737e+00	-1.242663e+02	1.243657e+02	4.800000e-03	0	9
	2	1	1	2	510	0	-1.000095e+00	-6.874518e-01	-5.248468e+01	5.249871e+01	2.300000e-03	0	9
	-2	1	1	2	0	513	-1.689508e+00	7.691661e+00	-2.879479e+02	2.880555e+02	2.300000e-03	0	9
	3	1	1	2	515	0	-3.023772e-01	-7.842686e-01	-8.576332e+00	8.617947e+00	9.500000e-02	0	9
	-3	1	1	2	0	507	1.723136e+00	-4.972958e-01	-1.661320e+02	1.661417e+02	9.500000e-02	0	9
	4	1	1	2	509	0	1.640620e+00	-3.188334e+00	-1.449821e+02	1.450320e+02	1.275000e+00	0	9
	-4	1	1	2	0	515	1.536218e+00	-1.710298e+00	-6.010149e+01	6.015896e+01	1.275000e+00	0	9
	21	1	1	2	505	506	-1.084145e-01	-1.829431e+00	-5.692879e+01	5.695828e+01	0.000000e+00	0	9
	21	1	1	2	512	514	-3.388653e+00	-1.703124e-01	-1.874774e+01	1.905229e+01	-7.907450e-07	0	9
	21	1	1	2	506	505	1.371933e+00	7.605317e-01	-1.854584e+01	1.861206e+01	-4.129531e-07	0	9
	21	1	1	2	507	502	2.398107e-01	5.140766e-01	-4.911019e+01	4.911347e+01	-9.536743e-07	0	9
	21	1	1	2	502	508	-7.409952e+00	7.087501e-01	-1.031378e+02	1.034061e+02	-2.336015e-06	0	9
	21	1	1	2	511	503	1.675315e+00	1.258300e+00	-3.811042e+01	3.816797e+01	0.000000e+00	0	9
	21	1	1	2	503	504	1.037307e+00	-9.374202e-02	-1.618702e+01	1.622049e+01	-2.384186e-07	0	9
	21	1	1	2	514	501	-5.632188e-01	9.503245e-01	-2.574740e+01	2.577108e+01	-4.768372e-07	0	9
	21	1	1	2	513	510	4.586411e+00	3.168263e-01	-7.994674e+01	8.007882e+01	-9.536743e-07	0	9
</event>
<event>
	20 7000 1.000000e+00 5.812855e+01 7.3e-03 0.118
	21	-1	0	0	504	501	0.000000e+00	0.000000e+00	3.323685e+00	3.323685e+00	0.000000e+00	0	9
	21	-1	0	0	509	505	0.000000e+00	0.000000e+00	-2.541552e+02	2.541552e+02	0.000000e+00	0	9
	1	1	1	2	510	0	1.016565e+00	-7.707504e-01	-1.643749e+01	1.648692e+01	4.800000e-03	0	9
	-1	1	1	2	0	505	-4.755302e+00	-4.254559e-01	-4.137612e+01	4.165065e+01	4.800000e-03	0	9
	2	1	1	2	512	0	-1.178718e-01	-1.258950e+00	-4.407181e+00	4.584986e+00	2.300000e-03	0	9
	-2	1	1	2	0	507	-4.055631e+00	-1.829549e-01	-1.101588e+01	1.174016e+01	2.300000e-03	0	9
	3	1	1	2	504	0	6.458429e+00	-4.672950e+00	-4.019142e+01	4.097447e+01	9.500000e-02	0	9
	-3	1	1	2	0	503	-7.234379e-01	2.286755e+00	-2.563654e+01	2.574867e+01	9.500000e-02	0	9
	4	1	1	2	502	0	-1.403898e+00	9.453243e-02	-6.206344e+00	6.490315e+00	1.275000e+00	0	9
	-4	1	1	2	0	512	1.935141e+00	2.155940e+00	-3.892762e+01	3.905608e+01	1.275000e+00	0	9
	21	1	1	2	506	514	3.152508e-01	-1.123443e+00	-7.029109e-01	1.362201e+00	-5.771195e-08	0	9
	21	1	1	2	509	506	3.613407e-01	1.034804e+00	-5.727343e+00	5.831281e+00	-8.429370e-08	0	9
	21	1	1	2	515	513	-3.839236e-02	1.360063e+00	-3.974133e+00	4.200592e+00	-5.960464e-08	0	9
	21	1	1	2	507	508	5.730136e-01	-5.505937e-01	-2.564725e+00	2.685016e+00	4.214685e-08	0	9
	21	1	1	2	513	511	-1.776962e-02	6.663919e-01	6.073972e-01	9.018455e-01	1.021572e-07	0	9
	21	1	1	2	516	510	2.302640e+00	3.440590e-01	-1.003243e+01	1.029903e+01	-1.192093e-07	0	9
	21	1	1	2	508	502	-1.500550e+00	-1.434263e+00	-2.339490e+00	3.127614e+00	-8.429370e-08	0	9
	21	1	1	2	511	515	-2.324693e+00	2.005339e-01	-2.090020e+01	2.103004e+01	-2.384186e-07	0	9
	21	1	1	2	503	516	7.862701e-01	1.251544e+00	-1.602807e+01	1.609608e+01	3.371748e-07	0	9
	21	1	1	2	514	501	1.188894e+00	1.024738e+00	-4.971054e+00	5.212958e+00	-1.032383e-07	0	9
</event>
<event>
	19 7000 1.000000e+00 5.488572e+01 7.3e-03 0.118
	21	-1	0	0	513	505	0.000000e+00	0.000000e+00	1.688328e+00	1.688328e+00	0.000000e+00	0	9
	21	-1	0	0	515	503	0.000000e+00	0.000000e+00	-4.460689e+02	4.460689e+02	0.000000e+00	0	9
	1	1	1	2	513	0	-4.646875e-01	-2.671476e+00	-3.796806e+01	3.806476e+01	4.800000e-03	0	9
	-1	1	1	2	0	501	-1.330393e+00	1.461320e+00	-2.312083e+01	2.320514e+01	4.800000e-03	0	9
	2	1	1	2	510	0	1.514756e+00	2.626056e+00	-2.803888e+01	2.820229e+01	2.300000e-03	0	9
	-2	1	1	2	0	509	3.021823e-01	-3.342254e-01	-2.304705e+00	2.348337e+00	2.300000e-03	0	9
	3	1	1	2	508	0	-2.684482e-01	7.698087e-01	-2.471854e+00	2.604565e+00	9.500000e-02	0	9
	-3	1	1	2	0	507	-7.404979e-01	-2.857985e+00	-7.116451e+00	7.705149e+00	9.500000e-02	0	9
	4	1	1	2	507	0	-2.308381e+00	4.725136e+00	-7.131111e+01	7.151612e+01	1.275000e+00	0	9
	-4	1	1	2	0	504	3.272690e-01	-7.173199e-01	-5.672794e+00	5.867527e+00	1.275000e+00	0	9
	21	1	1	2	509	508	-2.013991e+00	-7.522083e+00	-4.163365e+01	4.235562e+01	-1.348699e-06	0	9
	21	1	1	2	512	510	1.529624e+00	1.613088e+00	-1.123937e+01	1.145710e+01	-2.384186e-07	0	9
	21	1	1	2	506	502	8.207630e-01	1.945261e+00	-8.384006e+01	8.386664e+01	-9.536743e-07	0	9
	21	1	1	2	501	514	5.378947e+00	3.889572e+00	-4.507944e+01	4.556553e+01	-6.743496e-07	0	9
	21	1	1	2	502	512	3.032217e-01	4.844510e-01	-1.693656e+01	1.694620e+01	-4.129531e-07	0	9
	21	1	1	2	504	511	-8.678961e-01	6.420586e-01	-6.441389e+00	6.531230e+00	8.429370e-08	0	9
	21	1	1	2	514	503	-1.318160e+00	-4.436189e+00	-4.557227e+01	4.580665e+01	-6.743496e-07	0	9
	21	1	1	2	515	505	1.070161e-01	-2.902477e-01	-1.480719e+00	1.512688e+00	-2.980232e-08	0	9
	21	1	1	2	511	506	-9.713238e-01	6.727752e-01	-1.415248e+01	1.420172e+01	-1.685874e-07	0	9
</event>
<event>
	17 7000 1.000000e+00 5.169267e+01 7.3e-03 0.118
	21	-1	0	0	507	513	0.000000e+00	0.000000e+00	3.525553e-01	3.525553e-01	0.000000e+00	0	9
	21	-1	0	0	506	509	0.000000e+00	0.000000e+00	-1.894832e+03	1.894832e+03	0.000000e+00	0	9
	1	1	1	2	506	0	-4.032831e+00	-6.055198e-01	-3.415218e+02	3.415461e+02	4.800003e-03	0	9
	-1	1	1	2	0	511	-1.419058e-01	-9.202232e-01	-3.334790e+01	3.336090e+01	4.800000e-03	0	9
	2	1	1	2	508	0	-1.410492e-01	4.684864e-01	-7.621576e+00	7.637264e+00	2.300000e-03	0	9
	-2	1	1	2	0	501	1.745015e+00	4.074572e-01	-1.237918e+02	1.238048e+02	2.300001e-03	0	9
	3	1	1	2	503	0	-6.717773e-01	-3.366297e-01	-2.122898e+01	2.124249e+01	9.500000e-02	0	9
	-3	1	1	2	0	504	6.883801e-01	-1.357547e-01	-9.688616e+00	9.714453e+00	9.500000e-02	0	9
	4	1	1	2	511	0	9.704345e+00	1.577544e+00	-4.405870e+02	4.406985e+02	1.275000e+00	0	9
	-4	1	1	2	0	509	-4.951887e-01	1.665847e+00	-5.964978e+01	5.968871e+01	1.275000e+00	0	9
	21	1	1	2	512	503	9.792600e-01	1.846034e+00	-1.304847e+02	1.305014e+02	1.907349e-06	0	9
	21	1	1	2	504	512	-3.286143e+00	-5.824389e+00	-1.594732e+02	1.596133e+02	-1.907349e-06	0	9
	21	1	1	2	510	502	-1.590477e+00	-5.530089e-01	-1.931899e+01	1.939224e+01	-4.768372e-07	0	9
	21	1	1	2	507	505	2.664320e+00	2.948341e+00	-6.633539e+01	6.645431e+01	1.348699e-06	0	9
	21	1	1	2	502	508	-4.790154e+00	-5.653829e-01	-1.969217e+02	1.969808e+02	2.697398e-06	0	9
	21	1	1	2	501	510	-6.516967e-01	3.657640e-01	-2.830974e+02	2.830984e+02	0.000000e+00	0	9
	21	1	1	2	505	513	1.990236e-02	-3.385646e-01	-1.410380e+00	1.450584e+00	-1.281846e-07	0	9
</event>
<event>
	18 7000 1.000000e+00 6.563629e+01 7.3e-03 0.118
	21	-1	0	0	506	505	0.000000e+00	0.000000e+00	1.451725e+01	1.451725e+01	0.000000e+00	0	9
	21	-1	0	0	510	513	0.000000e+00	0.000000e+00	-7.418971e+01	7.418971e+01	0.000000e+00	0	9
	1	1	1	2	506	0	8.512442e-01	-7.847363e+00	-1.672047e+01	1.848999e+01	4.800000e-03	0	9
	-1	1	1	2	0	513	-3.771831e-01	1.721366e+00	-9.578351e-01	2.005702e+00	4.800000e-03	0	9
	2	1	1	2	510	0	3.147422e+00	4.528807e+00	1.854615e+00	5.818587e+00	2.300000e-03	0	9
	-2	1	1	2	0	508	-2.252954e+00	2.269492e-02	-2.889050e-01	2.271517e+00	2.300000e-03	0	9
	3	1	1	2	514	0	-2.189355e+00	3.580797e-01	-2.411988e+01	2.422187e+01	9.500000e-02	0	9
	-3	1	1	2	0	504	-5.052978e-01	5.449491e-01	7.563263e-01	1.064589e+00	9.500000e-02	0	9
	4	1	1	2	501	0	-1.754326e+00	1.267004e+00	1.507141e+00	2.929174e+00	1.275000e+00	0	9
	-4	1	1	2	0	514	1.886884e+00	9.421114e-01	-2.571601e-01	2.477834e+00	1.275000e+00	0	9
	21	1	1	2	512	502	6.586349e-01	1.409810e+00	-1.090860e-01	1.559892e+00	-4.214685e-08	0	9
	21	1	1	2	507	509	8.437615e-01	4.037853e-01	-1.173589e+01	1.177311e+01	1.685874e-07	0	9
	21	1	1	2	509	503	8.592264e-01	-2.386507e+00	-2.356386e+00	3.462115e+00	4.214685e-08	0	9
	21	1	1	2	502	507	-1.589617e+00	1.761288e+00	-2.673081e+00	3.574126e+00	-4.214685e-08	0	9
	21	1	1	2	503	512	5.778077e-01	3.957613e-01	-2.259051e+00	2.365122e+00	2.980232e-08	0	9
	21	1	1	2	511	505	-5.696103e-02	-6.023499e-01	8.088514e-02	6.104198e-01	1.490116e-08	0	9
	21	1	1	2	504	511	-8.127624e-01	-3.776175e+00	-8.245325e-01	3.949675e+00	-4.214685e-08	0	9
	21	1	1	2	508	501	7.134758e-01	1.256739e+00	-1.569149e+00	2.133230e+00	2.980232e-08	0	9
</event>
<event>
	16 7000 1.000000e+00 5.152929e+01 7.3e-03 0.118
	21	-1	0	0	512	508	0.000000e+00	0.000000e+00	8.861216e+00	8.861216e+00	0.000000e+00	0	9
	21	-1	0	0	501	504	0.000000e+00	0.000000e+00	-7.491262e+01	7.491262e+01	0.000000e+00	0	9
	1	1	1	2	501	0	-3.610565e-01	-6.766067e-01	-3.622158e+00	3.702460e+00	4.800000e-03	0	9
	-1	1	1	2	0	507	-4.214168e-01	-2.340596e+00	-8.492791e+00	8.819495e+00	4.800000e-03	0	9
	2	1	1	2	503	0	3.767657e+00	-3.304842e+00	-8.047735e+00	9.480679e+00	2.300000e-03	0	9
	-2	1	1	2	0	509	2.970777e+00	2.260070e+00	-6.058036e+00	7.115703e+00	2.300000e-03	0	9
	3	1	1	2	512	0	1.588544e+00	3.762728e+00	-2.768210e+00	4.934937e+00	9.500000e-02	0	9
	-3	1	1	2	0	502	-3.823942e+00	-4.078088e+00	-1.939783e+01	2.018757e+01	9.500000e-02	0	9
	4	1	1	2	511	0	-6.574092e-01	5.536172e-01	-2.974637e+00	3.348547e+00	1.275000e+00	0	9
	-4	1	1	2	0	511	1.308039e+00	5.919333e-01	-4.717875e-01	1.977261e+00	1.275000e+00	0	9
	21	1	1	2	506	508	-6.513660e+00	7.222793e-01	1.624130e-01	6.555596e+00	-1.460010e-07	0	9
	21	1	1	2	502	504	-5.802356e-01	3.397121e+00	-5.872172e+00	6.808782e+00	1.460010e-07	0	9
	21	1	1	2	510	505	-3.723002e-01	-7.309853e-01	-2.835367e-01	8.679517e-01	-1.053671e-08	0	9
	21	1	1	2	505	506	1.985360e-01	-8.184989e-01	-5.533300e-02	8.440490e-01	0.000000e+00	0	9
	21	1	1	2	509	510	1.100716e+00	1.058404e+00	-1.257215e+00	1.977975e+00	4.712161e-08	0	9
	21	1	1	2	507	503	1.795752e+00	-3.965366e-01	-6.912374e+00	7.152823e+00	-1.192093e-07	0	9
</event>
<event>
	17 7000 1.000000e+00 5.794442e+01 7.3e-03 0.118
	21	-1	0	0	512	504	0.000000e+00	0.000000e+00	8.336995e+01	8.336995e+01	0.000000e+00	0	9
	21	-1	0	0	509	506	0.000000e+00	0.000000e+00	-1.006824e+01	1.006824e+01	0.000000e+00	0	9
	1	1	1	2	513	0	-8.436582e-01	-1.400394e+00	5.299779e+00	5.546219e+00	4.800000e-03	0	9
	-1	1	1	2	0	502	-6.112832e-01	4.068602e-01	1.323139e+01	1.325175e+01	4.800000e-03	0	9
	2	1	1	2	511	0	4.159162e+00	1.204789e-01	2.560122e+00	4.885424e+00	2.300000e-03	0	9
	-2	1	1	2	0	511	2.261903e+00	1.549467e+00	8.206899e+00	8.652760e+00	2.300000e-03	0	9
	3	1	1	2	508	0	5.517578e-01	-8.942021e-01	6.631084e+00	6.714487e+00	9.500000e-02	0	9
	-3	1	1	2	0	503	1.507817e+00	3.975085e+00	6.733121e+00	7.963589e+00	9.500000e-02	0	9
	4	1	1	2	505	0	-6.338330e-01	1.938218e+00	-8.551742e-01	2.552524e+00	1.275000e+00	0	9
	-4	1	1	2	0	504	-3.051431e+00	-5.189872e+00	1.832757e+01	1.933317e+01	1.275000e+00	0	9
	21	1	1	2	510	513	4.928313e-01	-4.429239e+00	7.648991e-01	4.521738e+00	-1.576991e-07	0	9
	21	1	1	2	501	508	6.794820e-01	-1.245930e-01	1.901612e-02	6.910722e-01	-7.450581e-09	0	9
	21	1	1	2	503	505	-5.836692e-01	1.322984e+00	4.802484e+00	5.015457e+00	0.000000e+00	0	9
	21	1	1	2	512	506	-7.771524e-01	-1.612408e+00	1.841332e+00	2.567942e+00	-2.980232e-08	0	9
	21	1	1	2	507	510	4.284957e-01	4.688365e+00	6.298450e+00	7.863513e+00	8.429370e-08	0	9
	21	1	1	2	502	507	-2.942810e+00	-4.679731e-01	6.225859e-02	2.980437e+00	5.960464e-08	0	9
	21	1	1	2	509	501	-6.376123e-01	1.172235e-01	-6.215305e-01	8.981041e-01	4.470348e-08	0	9
</event>
<event>
	14 7000 1.000000e+00 5.631537e+01 7.3e-03 0.118
	21	-1	0	0	504	502	0.000000e+00	0.000000e+00	1.690056e+00	1.690056e+00	0.000000e+00	0	9
	21	-1	0	0	508	506	0.000000e+00	0.000000e+00	-4.691294e+02	4.691294e+02	0.000000e+00	0	9
	1	1	1	2	510	0	1.074787e+00	4.157781e-02	-4.677450e+00	4.799527e+00	4.800000e-03	0	9
	-1	1	1	2	0	507	5.448329e-01	-2.367080e+00	-4.234562e+00	4.881746e+00	4.800000e-03	0	9
	2	1	1	2	503	0	1.313538e-01	5.064414e-01	-4.505874e+00	4.536149e+00	2.300000e-03	0	9
	-2	1	1	2	0	503	1.606144e+00	-1.022208e+00	-9.012027e+01	9.014038e+01	2.300000e-03	0	9
	3	1	1	2	508	0	-7.266506e+00	3.135484e+00	-2.946781e+01	3.051219e+01	9.500000e-02	0	9
	-3	1	1	2	0	502	1.958803e+00	-1.719211e+00	-2.598170e+01	2.611227e+01	9.500000e-02	0	9
	4	1	1	2	509	0	-9.583335e-02	2.895028e-01	-4.231025e+01	4.233056e+01	1.275000e+00	0	9
	-4	1	1	2	0	510	4.986421e-01	-3.966317e+00	-4.596950e+01	4.616060e+01	1.275000e+00	0	9
	21	1	1	2	507	506	-3.291592e+00	3.390275e+00	-1.051768e+02	1.052829e+02	1.348699e-06	0	9
	21	1	1	2	501	509	4.244221e+00	2.572613e+00	-1.104673e+02	1.105787e+02	1.348699e-06	0	9
	21	1	1	2	504	505	-2.679297e-01	-4.065477e-01	-4.481549e+00	4.507921e+00	5.960464e-08	0	9
	21	1	1	2	505	501	8.630759e-01	-4.545308e-01	-4.633235e-02	9.765475e-01	1.608359e-07	0	9
</event>
<event>
	11 7000 1.000000e+00 5.049135e+01 7.3e-03 0.118
	21	-1	0	0	502	504	0.000000e+00	0.000000e+00	1.351926e-01	1.351926e-01	0.000000e+00	0	9
	21	-1	0	0	505	502	0.000000e+00	0.000000e+00	-4.714343e+03	4.714343e+03	0.000000e+00	0	9
	1	1	1	2	507	0	6.833741e+00	-3.050727e+00	-7.362165e+02	7.362546e+02	4.799999e-03	0	9
	-1	1	1	2	0	506	-4.250613e+00	1.794040e+00	-2.167281e+03	2.167286e+03	4.800096e-03	0	9
	2	1	1	2	501	0	3.198352e+00	-2.592995e+00	-2.659531e+02	2.659850e+02	2.300000e-03	0	9
	-2	1	1	2	0	507	3.704457e-02	2.572320e+00	-3.490027e+01	3.499495e+01	2.300000e-03	0	9
	3	1	1	2	503	0	1.957436e+00	-4.241258e-01	-1.968869e+02	1.968971e+02	9.500000e-02	0	9
	-3	1	1	2	0	503	-3.031407e+00	-1.360654e+00	-3.020535e+02	3.020718e+02	9.500000e-02	0	9
	4	1	1	2	506	0	-1.944162e+00	-1.259845e+00	-8.166318e+01	8.170598e+01	1.275000e+00	0	9
	-4	1	1	2	0	504	-3.705147e+00	1.105955e+00	-5.000119e+02	5.000285e+02	1.275000e+00	0	9
	21	1	1	2	505	501	9.047564e-01	3.216031e+00	-4.292413e+02	4.292543e+02	-9.344062e-06	0	9
</event>
<event>
	16 7000 1.000000e+00 5.211068e+01 7.3e-03 0.118
	21	-1	0	0	512	506	0.000000e+00	0.000000e+00	2.264361e+03	2.264361e+03	0.000000e+00	0	9
	21	-1	0	0	506	503	0.000000e+00	0.000000e+00	-2.998111e-01	2.998111e-01	0.000000e+00	0	9
	1	1	1	2	501	0	-1.465397e+00	7.219275e-01	1.622986e+02	1.623068e+02	4.800001e-03	0	9
	-1	1	1	2	0	508	6.344485e-01	1.687808e-01	5.935890e+00	5.972087e+00	4.800000e-03	0	9
	2	1	1	2	507	0	5.904952e-01	2.965058e+00	8.807170e+01	8.812358e+01	2.300000e-03	0	9
	-2	1	1	2	0	504	7.899189e-01	1.025537e+00	8.612529e+01	8.613501e+01	2.300000e-03	0	9
	3	1	1	2	511	0	5.369849e-02	-5.449702e+00	2.280843e+02	2.281494e+02	9.500000e-02	0	9
	-3	1	1	2	0	510	-1.018884e+01	4.095700e+00	4.563977e+02	4.565298e+02	9.500000e-02	0	9
	4	1	1	2	512	0	3.166898e+00	3.312447e+00	2.492719e+02	2.493172e+02	1.275000e+00	0	9
	-4	1	1	2	0	503	1.821860e+00	-3.688922e-01	5.175593e+01	5.180499e+01	1.275000e+00	0	9
	21	1	1	2	502	507	1.323676e+00	6.972325e-02	1.404661e+02	1.404723e+02	0.000000e+00	0	9
	21	1	1	2	508	511	-1.383803e+00	1.296347e+00	1.229675e+02	1.229821e+02	-1.348699e-06	0	9
	21	1	1	2	505	501	1.093007e+00	-1.981241e+00	1.060896e+02	1.061137e+02	0.000000e+00	0	9
	21	1	1	2	510	502	8.921923e-01	4.167422e-01	2.673589e+02	2.673607e+02	-3.814697e-06	0	9
	21	1	1	2	504	509	-1.148434e+00	-3.890831e+00	7.476238e+01	7.487236e+01	0.000000e+00	0	9
	21	1	1	2	509	505	3.820281e+00	-2.381596e+00	2.244756e+02	2.245208e+02	0.000000e+00	0	9
</event>
<event>
	14 7000 1.000000e+00 5.171474e+01 7.3e-03 0.118
	21	-1	0	0	510	504	0.000000e+00	0.000000e+00	8.351469e+00	8.351469e+00	0.000000e+00	0	9
	21	-1	0	0	506	505	0.000000e+00	0.000000e+00	-8.005820e+01	8.005820e+01	0.000000e+00	0	9
	1	1	1	2	507	0	1.467189e+00	-3.181643e+00	-1.338466e+01	1.383563e+01	4.800000e-03	0	9
	-1	1	1	2	0	508	-3.050402e+00	-1.059776e+00	-9.039110e-01	3.353380e+00	4.800000e-03	0	9
	2	1	1	2	509	0	5.771724e-01	2.484960e+00	-5.580680e-02	2.551719e+00	2.300000e-03	0	9
	-2	1	1	2	0	501	5.108773e-01	4.594293e-02	-1.746229e+00	1.820008e+00	2.300000e-03	0	9
	3	1	1	2	501	0	-1.400947e-01	-2.463623e+00	-8.957374e-01	2.626868e+00	9.500000e-02	0	9
	-3	1	1	2	0	504	6.511111e+00	-3.847222e-01	-1.473718e+01	1.611633e+01	9.500000e-02	0	9
	4	1	1	2	510	0	-1.491711e+00	-2.255005e+00	-8.252844e+00	8.777546e+00	1.275000e+00	0	9
	-4	1	1	2	0	502	-9.504722e-01	4.085634e-01	-7.250026e-01	1.794875e+00	1.275000e+00	0	9
	21	1	1	2	506	507	2.459164e+00	4.588809e+00	-9.440985e+00	1.078132e+01	-1.192093e-07	0	9
	21	1	1	2	502	505	1.348083e+00	-3.261516e+00	-1.493246e+00	3.832049e+00	4.214685e-08	0	9
	21	1	1	2	508	503	-4.928381e+00	-5.043659e-01	-1.033790e+01	1.146366e+01	1.685874e-07	0	9
	21	1	1	2	503	509	-2.312536e+00	5.582376e+00	-9.733233e+00	1.145629e+01	0.000000e+00	0	9
</event>
<event>
	17 7000 1.000000e+00 5.442034e+01 7.3e-03 0.118
	21	-1	0	0	507	504	0.000000e+00	0.000000e+00	2.061920e+03	2.061920e+03	0.000000e+00	0	9
	21	-1	0	0	511	513	0.000000e+00	0.000000e+00	-3.590797e-01	3.590797e-01	0.000000e+00	0	9
	1	1	1	2	501	0	3.471327e+00	-1.952137e+00	1.544322e+02	1.544835e+02	4.800001e-03	0	9
	-1	1	1	2	0	505	1.343078e+00	-2.288422e-01	3.793977e+01	3.796423e+01	4.800000e-03	0	9
	2	1	1	2	507	0	-1.766218e+00	-4.351573e+00	9.363399e+01	9.375170e+01	2.300000e-03	0	9
	-2	1	1	2	0	510	6.151876e-01	6.564901e-01	2.059254e+01	2.061218e+01	2.300000e-03	0	9
	3	1	1	2	508	0	-7.472630e+00	-4.995592e+00	3.317431e+02	3.318649e+02	9.500000e-02	0	9
	-3	1	1	2	0	503	2.250496e+00	-1.539605e+00	4.552056e+01	4.560225e+01	9.500000e-02	0	9
	4	1	1	2	511	0	2.236759e+00	-2.477122e+00	1.077462e+02	1.078055e+02	1.275000e+00	0	9
	-4	1	1	2	0	502	2.047542e+00	5.338006e-01	1.457230e+02	1.457439e+02	1.275000e+00	0	9
	21	1	1	2	512	506	3.058897e-01	5.447852e+00	1.727831e+02	1.728693e+02	2.697398e-06	0	9
	21	1	1	2	506	504	-1.644167e+00	5.121626e+00	5.159397e+02	5.159677e+02	-7.629395e-06	0	9
	21	1	1	2	502	513	-3.536056e-01	1.662360e+00	1.596276e+02	1.596367e+02	0.000000e+00	0	9
	21	1	1	2	503	508	8.614997e-01	2.970318e+00	1.371198e+02	1.371546e+02	0.000000e+00	0	9
	21	1	1	2	509	512	-1.228500e+00	2.261321e-01	1.213244e+02	1.213309e+02	1.348699e-06	0	9
	21	1	1	2	510	501	-2.303730e-01	-9.116499e-01	1.223641e+01	1.227249e+01	0.000000e+00	0	9
	21	1	1	2	505	509	-4.362848e-01	-1.620568e-01	5.198039e+00	5.218833e+00	1.576991e-07	0	9
</event>
<event>
	12 7000 1.000000e+00 5.195884e+01 7.3e-03 0.118
	21	-1	0	0	507	502	0.000000e+00	0.000000e+00	1.310713e+01	1.310713e+01	0.000000e+00	0	9
	21	-1	0	0	508	505	0.000000e+00	0.000000e+00	-5.149337e+01	5.149337e+01	0.000000e+00	0	9
	1	1	1	2	507	0	-3.091668e+00	-2.881732e-01	2.256659e+00	3.838488e+00	4.800000e-03	0	9
	-1	1	1	2	0	503	2.378353e+00	-2.053906e+00	-2.001161e+00	3.725556e+00	4.800000e-03	0	9
	2	1	1	2	504	0	-1.496600e+00	5.393164e-01	-1.961998e+01	1.968437e+01	2.300000e-03	0	9
	-2	1	1	2	0	505	-9.412472e-01	3.380077e+00	9.088523e-01	3.624484e+00	2.300000e-03	0	9
	3	1	1	2	508	0	-1.133045e+00	1.131695e+00	-1.703362e+00	2.339870e+00	9.500000e-02	0	9
	-3	1	1	2	0	504	-7.148854e-01	1.218950e+00	-2.929311e+00	3.253735e+00	9.500000e-02	0	9
	4	1	1	2	503	0	1.779703e+00	-8.693141e-01	-5.432676e-01	2.417398e+00	1.275000e+00	0	9
	-4	1	1	2	0	506	5.929299e+00	2.729811e+00	4.902448e-01	6.668915e+00	1.275000e+00	0	9
	21	1	1	2	506	501	3.468311e-01	-5.471019e+00	-2.660553e+00	6.093511e+00	1.192093e-07	0	9
	21	1	1	2	501	502	-3.056741e+00	-3.174369e-01	-1.258436e+01	1.295417e+01	0.000000e+00	0	9
</event>
<event>
	19 7000 1.000000e+00 5.085370e+01 7.3e-03 0.118
	21	-1	0	0	509	515	0.000000e+00	0.000000e+00	1.112936e+00	1.112936e+00	0.000000e+00	0	9
	21	-1	0	0	501	505	0.000000e+00	0.000000e+00	-5.809182e+02	5.809182e+02	0.000000e+00	0	9
	1	1	1	2	504	0	-5.004718e-01	-7.945094e-01	-4.547768e+01	4.548737e+01	4.800000e-03	0	9
	-1	1	1	2	0	515	-6.411054e-01	2.234832e+00	-2.924479e+01	2.933706e+01	4.800000e-03	0	9
	2	1	1	2	503	0	-2.902476e+00	1.916497e+00	-2.875164e+01	2.896125e+01	2.300000e-03	0	9
	-2	1	1	2	0	504	-2.250121e+00	-3.862046e-01	-1.382253e+01	1.400980e+01	2.300000e-03	0	9
	3	1	1	2	502	0	-1.506565e+00	1.280048e+00	-8.994448e+01	8.996625e+01	9.500000e-02	0	9
	-3	1	1	2	0	502	-8.527589e-01	-1.841169e+00	-3.282786e+00	3.860416e+00	9.500000e-02	0	9
	4	1	1	2	508	0	3.119155e+00	1.815427e+00	-6.359171e+01	6.370680e+01	1.275000e+00	0	9
	-4	1	1	2	0	512	1.669161e+00	4.602456e+00	-4.029545e+01	4.061179e+01	1.275000e+00	0	9
	21	1	1	2	506	511	-1.588509e-01	-2.590432e+00	-3.180477e+01	3.191048e+01	0.000000e+00	0	9
	21	1	1	2	511	514	2.554359e+00	3.385279e-03	-2.503412e+01	2.516410e+01	0.000000e+00	0	9
	21	1	1	2	501	510	-8.155400e-02	-8.523185e-01	-6.188163e+01	6.188755e+01	-6.743496e-07	0	9
	21	1	1	2	513	507	-8.546580e-02	-8.588588e-01	-9.319598e+00	9.359479e+00	-2.064765e-07	0	9
	21	1	1	2	512	506	-5.704794e-01	1.803051e-01	-1.636158e+01	1.637251e+01	2.384186e-07	0	9
	21	1	1	2	510	503	6.256068e-02	9.630788e-01	-1.932149e+00	2.159776e+00	-1.365714e-07	0	9
	21	1	1	2	514	508	1.053738e+00	-8.816822e-01	-3.144294e+01	3.147294e+01	3.371748e-07	0	9
	21	1	1	2	509	505	9.221311e-01	-3.946816e+00	-6.243591e+01	6.256733e+01	0.000000e+00	0	9
	21	1	1	2	507	513	1.687442e-01	-8.440391e-01	-2.518154e+01	2.519625e+01	-3.371748e-07	0	9
</event>
<event>
	16 7000 1.000000e+00 7.702173e+01 7.3e-03 0.118
	21	-1	0	0	501	503	0.000000e+00	0.000000e+00	4.005752e+00	4.005752e+00	0.000000e+00	0	9
	21	-1	0	0	509	508	0.000000e+00	0.000000e+00	-3.702393e+02	3.702393e+02	0.000000e+00	0	9
	1	1	1	2	509	0	-5.936538e+00	4.406165e+00	-1.609725e+01	1.771379e+01	4.800000e-03	0	9
	-1	1	1	2	0	507	-6.047211e-01	-3.598518e-02	-1.173317e+01	1.174880e+01	4.800000e-03	0	9
	2	1	1	2	511	0	-1.890860e+00	-1.599590e+00	-6.327214e+00	6.794680e+00	2.300000e-03	0	9
	-2	1	1	2	0	502	8.815115e-01	7.447974e-01	-2.136199e+01	2.139314e+01	2.300000e-03	0	9
	3	1	1	2	506	0	3.940210e+00	4.698442e+00	-3.091653e+01	3.151891e+01	9.500000e-02	0	9
	-3	1	1	2	0	504	-9.377165e-02	-2.294756e+00	-1.613047e+01	1.629343e+01	9.500000e-02	0	9
	4	1	1	2	512	0	6.905339e+00	6.140798e+00	-6.475241e+01	6.542089e+01	1.275000e+00	0	9
	-4	1	1	2	0	505	3.402231e+00	-4.830543e+00	-6.274987e+01	6.304031e+01	1.275000e+00	0	9
	21	1	1	2	505	506	1.361558e+00	2.966036e+00	-2.343210e+01	2.365829e+01	-3.371748e-07	0	9
	21	1	1	2	510	511	-6.832499e+00	-6.810871e+00	-4.211006e+01	4.320102e+01	-9.536743e-07	0	9
	21	1	1	2	507	508	-1.132070e+00	-1.140628e+00	-1.540086e+01	1.548448e+01	1.685874e-07	0	9
	21	1	1	2	502	503	5.794972e+00	4.265046e+00	-3.351918e+01	3.428276e+01	0.000000e+00	0	9
	21	1	1	2	504	512	-3.957458e+00	-4.936731e+00	-1.071127e+01	1.244042e+01	-4.460403e-07	0	9
	21	1	1	2	501	510	-1.837905e+00	-1.572181e+00	-1.099120e+01	1.125416e+01	0.000000e+00	0	9
</event>
<event>
	14 7000 1.000000e+00 5.495223e+01 7.3e-03 0.118
	21	-1	0	0	501	506	0.000000e+00	0.000000e+00	1.242120e+01	1.242120e+01	0.000000e+00	0	9
	21	-1	0	0	507	501	0.000000e+00	0.000000e+00	-6.077808e+01	6.077808e+01	0.000000e+00	0	9
	1	1	1	2	509	0	-1.370928e-01	4.396545e+00	-3.475684e+00	5.606140e+00	4.800000e-03	0	9
	-1	1	1	2	0	503	-3.532609e+00	-4.864617e+00	-1.866047e+01	1.960503e+01	4.800000e-03	0	9
	2	1	1	2	502	0	-1.841282e+00	1.392397e+00	2.085189e+00	3.110805e+00	2.300000e-03	0	9
	-2	1	1	2	0	504	-1.430228e+00	4.106336e+00	-8.187594e+00	9.270612e+00	2.300000e-03	0	9
	3	1	1	2	503	0	3.584481e-01	3.463449e-01	-1.597063e-01	5.319501e-01	9.500000e-02	0	9
	-3	1	1	2	0	508	-1.540889e+00	-2.808294e-01	-2.275080e+00	2.763733e+00	9.500000e-02	0	9
	4	1	1	2	505	0	3.985657e+00	-1.466423e+00	-3.179280e+00	5.456126e+00	1.275000e+00	0	9
	-4	1	1	2	0	510	-3.673877e+00	-4.586252e+00	-1.123310e+01	1.274124e+01	1.275000e+00	0	9
	21	1	1	2	507	509	1.396981e+00	-5.699100e-01	7.363087e-01	1.678840e+00	-4.214685e-08	0	9
	21	1	1	2	510	505	3.764840e-01	-1.114681e+00	7.080588e-01	1.373172e+00	-3.942477e-08	0	9
	21	1	1	2	504	502	1.683799e+00	4.539108e+00	-8.028985e-01	4.907477e+00	1.032383e-07	0	9
	21	1	1	2	508	506	4.354609e+00	-1.898018e+00	-3.912618e+00	6.154159e+00	1.192093e-07	0	9
</event>
<event>
	19 7000 1.000000e+00 5.319211e+01 7.3e-03 0.118
	21	-1	0	0	501	512	0.000000e+00	0.000000e+00	1.509748e+03	1.509748e+03	0.000000e+00	0	9
	21	-1	0	0	502	509	0.000000e+00	0.000000e+00	-4.685219e-01	4.685219e-01	0.000000e+00	0	9
	1	1	1	2	514	0	-3.128490e-01	2.443493e+00	4.901025e+01	4.907212e+01	4.800000e-03	0	9
	-1	1	1	2	0	510	-1.887159e+00	-6.737099e-01	4.736227e+01	4.740464e+01	4.800000e-03	0	9
	2	1	1	2	505	0	1.052266e+00	2.446951e-03	5.600609e+01	5.601598e+01	2.300000e-03	0	9
	-2	1	1	2	0	507	-1.081269e+00	-3.451293e+00	6.951549e+01	6.960951e+01	2.300000e-03	0	9
	3	1	1	2	513	0	-2.523530e-01	9.543977e-01	2.702366e+01	2.704185e+01	9.500000e-02	0	9
	-3	1	1	2	0	512	3.179994e+00	-3.683336e+00	4.732294e+01	4.757256e+01	9.500000e-02	0	9
	4	1	1	2	503	0	-2.188706e-01	-1.675991e-01	1.879520e+02	1.879565e+02	1.275000e+00	0	9
	-4	1	1	2	0	511	-2.880788e+00	6.620636e+00	2.538531e+02	2.539590e+02	1.275000e+00	0	9
	21	1	1	2	502	503	4.575588e+00	-4.979754e+00	1.415921e+02	1.417535e+02	0.000000e+00	0	9
	21	1	1	2	504	514	3.269257e-01	7.993180e-02	1.915665e+01	1.915961e+01	-2.384186e-07	0	9
	21	1	1	2	515	504	-2.272590e+00	9.563016e-01	9.624690e+01	9.627847e+01	0.000000e+00	0	9
	21	1	1	2	508	513	-1.611415e+00	-1.555829e+00	4.092036e+01	4.098162e+01	0.000000e+00	0	9
	21	1	1	2	511	515	-1.257252e+00	-6.403518e-01	3.257971e+01	3.261025e+01	4.768372e-07	0	9
	21	1	1	2	506	509	4.803691e-01	3.011961e-01	3.429843e+01	3.430312e+01	0.000000e+00	0	9
	21	1	1	2	510	508	-1.021325e-01	1.223753e+00	2.768345e+02	2.768372e+02	0.000000e+00	0	9
	21	1	1	2	501	506	9.315613e-01	7.073126e-01	2.188141e+01	2.191265e+01	2.384186e-07	0	9
	21	1	1	2	507	505	1.329974e+00	1.862404e+00	1.077238e+02	1.077481e+02	0.000000e+00	0	9
</event>
<event>
	17 7000 1.000000e+00 5.103071e+01 7.3e-03 0.118
	21	-1	0	0	503	512	0.000000e+00	0.000000e+00	1.105187e+01	1.105187e+01	0.000000e+00	0	9
	21	-1	0	0	510	501	0.000000e+00	0.000000e+00	-5.890707e+01	5.890707e+01	0.000000e+00	0	9
	1	1	1	2	510	0	7.666837e+00	-2.552910e+00	-5.401193e+00	9.719601e+00	4.800000e-03	0	9
	-1	1	1	2	0	501	-1.541028e+00	1.261093e+00	-4.987444e-01	2.052776e+00	4.800000e-03	0	9
	2	1	1	2	508	0	1.636566e+00	-1.961636e+00	-6.167471e+00	6.675632e+00	2.300000e-03	0	9
	-2	1	1	2	0	509	1.576321e+00	-1.216200e-01	2.267107e-01	1.597179e+00	2.300000e-03	0	9
	3	1	1	2	503	0	1.519453e+00	2.036859e+00	-7.407581e+00	7.831910e+00	9.500000e-02	0	9
	-3	1	1	2	0	513	-2.226504e+00	-1.790318e+00	-1.260913e+00	3.124337e+00	9.500000e-02	0	9
	4	1	1	2	507	0	-3.868285e-02	-2.069532e+00	-1.464335e+00	2.838021e+00	1.275000e+00	0	9
	-4	1	1	2	0	507	-4.474401e+00	3.072471e+00	-1.045283e+01	1.184684e+01	1.275000e+00	0	9
	21	1	1	2	511	512	6.212027e-01	-2.302073e-01	6.632193e-01	9.374156e-01	-3.161014e-08	0	9
	21	1	1	2	513	508	-1.970159e+00	1.518596e+00	5.993829e-01	2.558695e+00	2.980232e-08	0	9
	21	1	1	2	509	504	1.136505e-02	1.501930e+00	-5.343578e-01	1.594196e+00	3.650024e-08	0	9
	21	1	1	2	506	505	-1.215115e+00	1.033547e+00	-4.061253e+00	4.363313e+00	0.000000e+00	0	9
	21	1	1	2	504	502	-2.406139e+00	-1.492174e-01	-1.186232e+00	2.686804e+00	-5.161914e-08	0	9
	21	1	1	2	502	506	1.421075e+00	-6.002981e-01	-4.406920e-01	1.604376e+00	2.980232e-08	0	9
	21	1	1	2	505	511	-5.807910e-01	-9.487567e-01	-1.046891e+01	1.052785e+01	-1.685874e-07	0	9
</event>
<event>
	22 7000 1.000000e+00 5.050023e+01 7.3e-03 0.118
	21	-1	0	0	502	517	0.000000e+00	0.000000e+00	4.121611e+03	4.121611e+03	0.000000e+00	0	9
	21	-1	0	0	518	509	0.000000e+00	0.000000e+00	-1.546891e-01	1.546891e-01	0.000000e+00	0	9
	1	1	1	2	518	0	-1.102020e+00	1.317606e+00	7.177704e+01	7.179759e+01	4.800000e-03	0	9
	-1	1	1	2	0	513	-2.907959e+00	1.957289e+00	1.961220e+02	1.961533e+02	4.799999e-03	0	9
	2	1	1	2	504	0	9.595510e-01	-2.442070e+00	1.083530e+02	1.083848e+02	2.299999e-03	0	9
	-2	1	1	2	0	509	2.773023e+00	9.862472e-01	1.910095e+02	1.910321e+02	2.299998e-03	0	9
	3	1	1	2	502	0	1.400861e+00	-3.917511e+00	4.769751e+02	4.769932e+02	9.500000e-02	0	9
	-3	1	1	2	0	507	7.639636e-01	2.624724e+00	1.949508e+02	1.949700e+02	9.500000e-02	0	9
	4	1	1	2	514	0	6.534794e-01	1.131468e+00	1.080520e+02	1.080674e+02	1.275000e+00	0	9
	-4	1	1	2	0	504	-1.651018e+00	5.405485e-01	6.287120e+01	6.290811e+01	1.275000e+00	0	9
	21	1	1	2	516	501	2.501904e+00	-2.973106e-01	2.952949e+02	2.953057e+02	3.814697e-06	0	9
	21	1	1	2	511	515	-6.707672e-01	-2.297819e+00	2.146555e+02	2.146688e+02	-2.697398e-06	0	9
	21	1	1	2	508	516	-8.732833e-03	-1.640144e+00	3.519234e+02	3.519273e+02	3.814697e-06	0	9
	21	1	1	2	501	508	1.524138e+00	4.713087e+00	8.283001e+02	8.283149e+02	-1.078959e-05	0	9
	21	1	1	2	505	511	-3.001379e+00	1.015428e+00	3.153929e+02	3.154089e+02	3.814697e-06	0	9
	21	1	1	2	513	503	-1.601450e-01	7.186193e-02	3.907263e+01	3.907302e+01	0.000000e+00	0	9
	21	1	1	2	510	517	-7.629308e-01	-2.565658e+00	3.331340e+02	3.331448e+02	0.000000e+00	0	9
	21	1	1	2	512	514	2.788736e-01	-3.135058e-01	3.246395e+01	3.246667e+01	4.768372e-07	0	9
	21	1	1	2	503	506	-8.348502e-01	-3.548017e-01	7.347739e+01	7.348299e+01	9.536743e-07	0	9
	21	1	1	2	515	505	1.476654e+00	-1.424242e+00	1.206050e+02	1.206224e+02	0.000000e+00	0	9
	21	1	1	2	507	510	3.211428e-02	-1.558625e-01	2.585600e+00	2.590493e+00	-1.884864e-07	0	9
	21	1	1	2	506	512	-1.264760e+00	1.050666e+00	1.044402e+02	1.044532e+02	-1.348699e-06	0	9
</event>
<event>
	19 7000 1.000000e+00 5.399096e+01 7.3e-03 0.118
	21	-1	0	0	504	508	0.000000e+00	0.000000e+00	1.962040e+01	1.962040e+01	0.000000e+00	0	9
	21	-1	0	0	511	515	0.000000e+00	0.000000e+00	-3.714277e+01	3.714277e+01	0.000000e+00	0	9
	1	1	1	2	509	0	-1.275629e+00	4.839554e-01	6.246086e+00	6.393361e+00	4.800000e-03	0	9
	-1	1	1	2	0	514	-4.925547e-01	-1.614983e+00	-4.890468e-01	1.757831e+00	4.800000e-03	0	9
	2	1	1	2	513	0	1.045904e+00	-9.356023e-02	8.407632e-01	1.345197e+00	2.300000e-03	0	9
	-2	1	1	2	0	508	4.831962e-02	-1.845461e-01	4.192669e-01	4.606323e-01	2.300000e-03	0	9
	3	1	1	2	504	0	2.789876e-01	8.119400e-01	-1.487013e+00	1.719684e+00	9.500000e-02	0	9
	-3	1	1	2	0	509	-1.386028e+00	5.120275e+00	-3.228624e+00	6.210582e+00	9.500000e-02	0	9
	4	1	1	2	514	0	3.182475e+00	1.898379e+00	-8.501488e-01	4.010033e+00	1.275000e+00	0	9
	-4	1	1	2	0	501	1.010396e-01	-1.449574e+00	-2.639770e+00	3.271924e+00	1.275000e+00	0	9
	21	1	1	2	507	502	2.692774e+00	-3.019997e+00	-3.049296e+00	5.066519e+00	1.032383e-07	0	9
	21	1	1	2	511	505	1.235115e+00	7.136290e-01	6.014394e-01	1.548065e+00	2.107342e-08	0	9
	21	1	1	2	503	512	-8.457753e+00	5.157911e-01	-1.095490e+01	1.384953e+01	-1.685874e-07	0	9
	21	1	1	2	502	510	2.317788e+00	-3.130539e-01	-2.847219e+00	3.684671e+00	9.424322e-08	0	9
	21	1	1	2	506	507	-1.516741e+00	-2.028729e+00	-8.493432e-01	2.671634e+00	0.000000e+00	0	9
	21	1	1	2	501	503	7.840501e-01	4.552633e-01	1.046017e+00	1.384251e+00	0.000000e+00	0	9
	21	1	1	2	505	513	1.851952e+00	-2.890608e-01	-2.771282e-01	1.894751e+00	0.000000e+00	0	9
	21	1	1	2	512	515	-6.717472e-01	-6.522531e-01	-2.769473e-01	9.764108e-01	1.053671e-08	0	9
	21	1	1	2	510	506	2.620491e-01	-3.534749e-01	2.735030e-01	5.180909e-01	-7.450581e-09	0	9
</event>
<event>
	16 7000 1.000000e+00 5.158532e+01 7.3e-03 0.118
	21	-1	0	0	504	502	0.000000e+00	0.000000e+00	9.632394e+01	9.632394e+01	0.000000e+00	0	9
	21	-1	0	0	511	507	0.000000e+00	0.000000e+00	-6.906499e+00	6.906499e+00	0.000000e+00	0	9
	1	1	1	2	504	0	1.590749e+00	-1.184572e+00	1.260241e+01	1.275753e+01	4.800000e-03	0	9
	-1	1	1	2	0	510	2.104981e+00	2.368333e-01	9.050330e+00	9.294920e+00	4.800000e-03	0	9
	2	1	1	2	509	0	-1.464297e+00	-3.230069e-01	-1.237047e+00	1.943911e+00	2.300000e-03	0	9
	-2	1	1	2	0	503	-3.381529e+00	1.039692e+00	2.526063e+00	4.347033e+00	2.300000e-03	0	9
	3	1	1	2	503	0	5.116455e+00	5.138130e+00	1.003912e+01	1.238432e+01	9.500000e-02	0	9
	-3	1	1	2	0	507	-3.134600e+00	-3.009876e+00	8.657184e+00	9.687153e+00	9.500000e-02	0	9
	4	1	1	2	511	0	-4.748759e-01	1.929493e+00	5.341686e+00	5.840179e+00	1.275000e+00	0	9
	-4	1	1	2	0	508	-1.164570e+00	1.025426e+00	2.300271e+00	3.053620e+00	1.275000e+00	0	9
	21	1	1	2	506	505	-1.530536e+00	1.355827e+00	3.985180e+00	4.479114e+00	8.429370e-08	0	9
	21	1	1	2	508	512	-2.789834e+00	5.841567e-01	1.420818e+01	1.449127e+01	-1.685874e-07	0	9
	21	1	1	2	505	509	2.560939e+00	-2.098723e+00	1.065183e+01	1.115457e+01	-1.192093e-07	0	9
	21	1	1	2	501	506	2.252387e+00	-2.286024e+00	5.317378e+00	6.210769e+00	8.429370e-08	0	9
	21	1	1	2	510	502	-7.987016e-01	-3.124575e+00	4.965230e+00	5.920676e+00	1.192093e-07	0	9
	21	1	1	2	512	501	1.113433e+00	7.172200e-01	1.009632e+00	1.665381e+00	-2.107342e-08	0	9
</event>
<event>
	18 7000 1.000000e+00 6.251822e+01 7.3e-03 0.118
	21	-1	0	0	508	505	0.000000e+00	0.000000e+00	3.082528e+01	3.082528e+01	0.000000e+00	0	9
	21	-1	0	0	504	501	0.000000e+00	0.000000e+00	-3.169904e+01	3.169904e+01	0.000000e+00	0	9
	1	1	1	2	508	0	-1.236518e+00	-1.937080e-01	-5.677423e-01	1.374356e+00	4.800000e-03	0	9
	-1	1	1	2	0	509	-6.563689e-01	-2.396117e+00	2.436130e-01	2.496311e+00	4.800000e-03	0	9
	2	1	1	2	504	0	-1.800871e+00	-1.413536e+00	3.416466e+00	4.112598e+00	2.300000e-03	0	9
	-2	1	1	2	0	506	1.000770e+00	-4.837697e+00	-1.683769e+00	5.219189e+00	2.300000e-03	0	9
	3	1	1	2	502	0	-3.481444e-01	9.091637e+00	-6.768749e-01	9.123938e+00	9.500000e-02	0	9
	-3	1	1	2	0	501	-2.308337e+00	1.218174e+00	-5.880753e-01	2.677167e+00	9.500000e-02	0	9
	4	1	1	2	507	0	7.472593e-01	3.581541e+00	-2.611972e+00	4.672671e+00	1.275000e+00	0	9
	-4	1	1	2	0	512	4.845070e+00	1.561462e+00	1.169061e+00	5.376355e+00	1.275000e+00	0	9
	21	1	1	2	510	503	-2.669182e+00	-3.511414e+00	6.730495e-03	4.410738e+00	0.000000e+00	0	9
	21	1	1	2	514	502	-2.343806e+00	-2.165174e+00	4.404336e-01	3.221085e+00	4.214685e-08	0	9
	21	1	1	2	513	510	1.603520e+00	-5.068621e-01	-1.208780e+00	2.071071e+00	-4.214685e-08	0	9
	21	1	1	2	511	513	3.074886e+00	3.342908e+00	1.965057e+00	4.948880e+00	1.192093e-07	0	9
	21	1	1	2	509	507	4.896342e-01	-1.585293e+00	-5.942331e-01	1.762387e+00	2.980232e-08	0	9
	21	1	1	2	512	505	3.501741e+00	2.680206e+00	5.958575e-01	4.449802e+00	0.000000e+00	0	9
	21	1	1	2	506	511	-4.546069e-01	-8.101986e-01	-8.879400e-01	1.285117e+00	2.107342e-08	0	9
	21	1	1	2	503	514	-3.445048e+00	-4.055930e+00	1.084090e-01	5.322657e+00	-1.192093e-07	0	9
</event>
<event>
	15 7000 1.000000e+00 5.017857e+01 7.3e-03 0.118
	21	-1	0	0	508	506	0.000000e+00	0.000000e+00	2.186234e+01	2.186234e+01	0.000000e+00	0	9
	21	-1	0	0	503	504	0.000000e+00	0.000000e+00	-2.879253e+01	2.879253e+01	0.000000e+00	0	9
	1	1	1	2	503	0	2.049839e+00	-8.076506e+00	-4.011475e+00	9.247905e+00	4.800000e-03	0	9
	-1	1	1	2	0	505	-3.290354e+00	6.331037e+00	1.156951e-01	7.135956e+00	4.800000e-03	0	9
	2	1	1	2	505	0	-3.147438e+00	-3.742694e+00	-2.778459e-01	4.898094e+00	2.300000e-03	0	9
	-2	1	1	2	0	501	1.166342e+00	3.909688e-01	1.043940e+00	1.613390e+00	2.300000e-03	0	9
	3	1	1	2	509	0	-3.602104e-01	1.636623e+00	-2.996773e+00	3.434816e+00	9.500000e-02	0	9
	-3	1	1	2	0	509	1.051313e+00	1.467217e+00	-3.503153e+00	3.941966e+00	9.500000e-02	0	9
	4	1	1	2	510	0	2.885247e+00	2.166914e+00	8.482012e-01	3.919852e+00	1.275000e+00	0	9
	-4	1	1	2	0	502	-1.519552e+00	-2.976927e-01	-1.823031e+00	2.710485e+00	1.275000e+00	0	9
	21	1	1	2	502	504	6.820721e-01	-1.425103e+00	-2.152511e+00	2.670102e+00	-5.161914e-08	0	9
	21	1	1	2	507	510	2.272983e-01	2.027712e-01	1.575277e-02	3.050063e-01	5.268356e-09	0	9
	21	1	1	2	501	511	3.485163e+00	8.395482e-01	7.231957e-02	3.585587e+00	7.300048e-08	0	9
	21	1	1	2	511	507	-2.619196e+00	-1.279796e-01	1.861815e+00	3.216041e+00	-5.960464e-08	0	9
	21	1	1	2	508	506	-6.105255e-01	6.348952e-01	3.876875e+00	3.975675e+00	-5.960464e-08	0	9
</event>
<event>
	21 7000 1.000000e+00 6.412928e+01 7.3e-03 0.118
	21	-1	0	0	514	511	0.000000e+00	0.000000e+00	4.139014e+01	4.139014e+01	0.000000e+00	0	9
	21	-1	0	0	504	516	0.000000e+00	0.000000e+00	-2.484024e+01	2.484024e+01	0.000000e+00	0	9
	1	1	1	2	505	0	6.018954e+00	3.434884e+00	3.736170e+00	7.873070e+00	4.800000e-03	0	9
	-1	1	1	2	0	511	-1.406926e+00	-4.304974e+00	5.276430e+00	6.953630e+00	4.800000e-03	0	9
	2	1	1	2	513	0	-2.562178e+00	-8.394811e-01	4.573947e-01	2.734721e+00	2.300000e-03	0	9
	-2	1	1	2	0	510	-1.694029e+00	3.891561e+00	1.458615e+00	4.487933e+00	2.300000e-03	0	9
	3	1	1	2	507	0	-1.062773e-01	-1.043161e-01	8.261777e-01	8.448499e-01	9.500000e-02	0	9
	-3	1	1	2	0	509	-5.181311e-01	-7.089249e-01	-1.936283e+00	2.128203e+00	9.500000e-02	0	9
	4	1	1	2	502	0	-1.829625e-01	1.243346e+00	1.201840e+00	2.156253e+00	1.275000e+00	0	9
	-4	1	1	2	0	512	-6.072269e-01	1.292408e+00	2.163645e+00	2.888950e+00	1.275000e+00	0	9
	21	1	1	2	509	505	-3.117944e-01	-3.564432e+00	4.201775e+00	5.518813e+00	0.000000e+00	0	9
	21	1	1	2	504	506	-3.877568e+00	2.254654e-01	-6.152571e-01	3.932545e+00	4.214685e-08	0	9
	21	1	1	2	501	515	-4.499952e-01	4.847820e-02	-6.521515e-01	7.938183e-01	1.825012e-08	0	9
	21	1	1	2	508	502	3.907062e-02	1.735705e-01	-7.485337e-02	1.930188e-01	-4.562530e-09	0	9
	21	1	1	2	512	501	2.111874e+00	-1.422623e-01	-3.887852e+00	4.426696e+00	5.960464e-08	0	9
	21	1	1	2	517	503	6.214931e-02	5.898849e-02	-2.159450e+00	2.161149e+00	-8.429370e-08	0	9
	21	1	1	2	503	507	-8.390117e-01	-6.388998e-01	4.795476e+00	4.910064e+00	-5.960464e-08	0	9
	21	1	1	2	514	516	5.792291e+00	2.988217e+00	-3.079777e+00	7.208683e+00	-1.884864e-07	0	9
	21	1	1	2	506	513	-1.744042e+00	-3.105856e+00	2.595999e+00	4.407634e+00	0.000000e+00	0	9
	21	1	1	2	510	508	8.834338e-02	-5.123481e-01	3.492607e-01	6.263291e-01	0.000000e+00	0	9
	21	1	1	2	515	517	1.874592e-01	5.645750e-01	1.892739e+00	1.984022e+00	-2.980232e-08	0	9
</event>
<event>
	13 7000 1.000000e+00 5.103398e+01 7.3e-03 0.118
	21	-1	0	0	502	501	0.000000e+00	0.000000e+00	3.709628e+00	3.709628e+00	0.000000e+00	0	9
	21	-1	0	0	506	504	0.000000e+00	0.000000e+00	-1.755208e+02	1.755208e+02	0.000000e+00	0	9
	1	1	1	2	508	0	3.617349e-03	-5.147183e-02	-3.575860e-02	6.296151e-02	4.800000e-03	0	9
	-1	1	1	2	0	507	-1.949370e+00	-5.738236e-01	-4.245128e+00	4.706427e+00	4.800000e-03	0	9
	2	1	1	2	507	0	6.313021e-01	-2.034275e+00	-3.084891e+00	3.748783e+00	2.300000e-03	0	9
	-2	1	1	2	0	505	3.302680e+00	-1.294633e+00	-7.070516e+01	7.079410e+01	2.300000e-03	0	9
	3	1	1	2	505	0	-5.964726e+00	-2.656152e+00	-1.915393e+01	2.023648e+01	9.500000e-02	0	9
	-3	1	1	2	0	504	-4.212633e+00	2.540401e+00	-1.254038e+01	1.347108e+01	9.500000e-02	0	9
	4	1	1	2	503	0	9.705467e-01	-6.408144e-01	-1.647498e+01	1.656512e+01	1.275000e+00	0	9
	-4	1	1	2	0	508	1.973590e+00	3.034625e+00	-1.692779e+00	4.194655e+00	1.275000e+00	0	9
	21	1	1	2	506	509	7.821846e-01	-2.007298e+00	-3.536856e+00	4.141305e+00	8.429370e-08	0	9
	21	1	1	2	502	501	4.071136e-01	3.481121e+00	-2.992695e+01	3.013148e+01	0.000000e+00	0	9
	21	1	1	2	509	503	4.055695e+00	2.023207e-01	-1.041431e+01	1.117799e+01	0.000000e+00	0	9
</event>
<event>
	17 7000 1.000000e+00 5.105020e+01 7.3e-03 0.118
	21	-1	0	0	507	509	0.000000e+00	0.000000e+00	9.425193e-01	9.425193e-01	0.000000e+00	0	9
	21	-1	0	0	513	505	0.000000e+00	0.000000e+00	-6.912652e+02	6.912652e+02	0.000000e+00	0	9
	1	1	1	2	513	0	-8.527680e-01	9.067144e-01	-1.858288e+01	1.862452e+01	4.800000e-03	0	9
	-1	1	1	2	0	510	2.623955e+00	-4.129497e-01	-2.785181e+01	2.797819e+01	4.800000e-03	0	9
	2	1	1	2	510	0	7.263620e-01	-1.491970e+00	-5.867394e+01	5.869740e+01	2.300000e-03	0	9
	-2	1	1	2	0	503	2.552142e+00	-9.839238e-01	-7.718351e+01	7.723197e+01	2.300000e-03	0	9
	3	1	1	2	508	0	2.737631e-01	-3.207603e-01	-8.445331e+00	8.456387e+00	9.500000e-02	0	9
	-3	1	1	2	0	511	4.015102e+00	-2.720970e+00	-8.289686e+01	8.303868e+01	9.500000e-02	0	9
	4	1	1	2	504	0	-1.155776e+00	-9.430145e-01	-9.139412e+00	9.347704e+00	1.275000e+00	0	9
	-4	1	1	2	0	512	2.219215e+00	-2.059917e+00	-7.044407e+01	7.052064e+01	1.275000e+00	0	9
	21	1	1	2	511	502	1.106004e+00	5.272681e-01	-1.205501e+01	1.211712e+01	-2.384186e-07	0	9
	21	1	1	2	501	508	3.515939e+00	2.341400e+00	-6.499397e+01	6.513110e+01	0.000000e+00	0	9
	21	1	1	2	503	509	-9.783497e+00	2.241083e-01	-1.650377e+02	1.653276e+02	2.697398e-06	0	9
	21	1	1	2	506	501	-2.662561e+00	2.010749e+00	-3.301286e+01	3.318104e+01	0.000000e+00	0	9
	21	1	1	2	512	504	-8.901441e-01	-1.216749e+00	-9.202736e+00	9.325406e+00	2.665601e-07	0	9
	21	1	1	2	507	506	4.518021e-01	3.728800e+00	-4.406784e+01	4.422762e+01	-4.768372e-07	0	9
	21	1	1	2	502	505	-2.139539e+00	4.112148e-01	-8.734719e+00	9.002335e+00	3.769729e-07	0	9
</event>
<event>
	15 7000 1.000000e+00 8.189945e+01 7.3e-03 0.118
	21	-1	0	0	511	507	0.000000e+00	0.000000e+00	3.334816e+03	3.334816e+03	0.000000e+00	0	9
	21	-1	0	0	510	508	0.000000e+00	0.000000e+00	-5.028404e-01	5.028404e-01	0.000000e+00	0	9
	1	1	1	2	505	0	-5.514284e+00	-4.517749e-01	3.912009e+02	3.912400e+02	4.799996e-03	0	9
	-1	1	1	2	0	509	6.769947e-01	5.152147e-01	3.867903e+00	3.960361e+00	4.800000e-03	0	9
	2	1	1	2	504	0	-3.535184e+00	2.851290e+00	5.684622e+01	5.702736e+01	2.299999e-03	0	9
	-2	1	1	2	0	506	4.510848e+00	4.966563e+00	1.515416e+02	1.516900e+02	2.299998e-03	0	9
	3	1	1	2	501	0	7.331139e-02	3.460084e+00	2.686952e+02	2.687175e+02	9.500000e-02	0	9
	-3	1	1	2	0	502	1.359120e+00	-5.336838e-01	3.504286e+01	3.507340e+01	9.500000e-02	0	9
	4	1	1	2	509	0	5.584172e+00	-2.976184e-01	3.238287e+02	3.238795e+02	1.275000e+00	0	9
	-4	1	1	2	0	501	-2.083282e+00	-5.408844e+00	2.191244e+02	2.192047e+02	1.275000e+00	0	9
	21	1	1	2	503	504	4.614426e+00	1.296674e+00	2.036825e+02	2.037388e+02	0.000000e+00	0	9
	21	1	1	2	506	507	-1.528814e+00	-6.914173e+00	1.211517e+03	1.211538e+03	0.000000e+00	0	9
	21	1	1	2	511	503	-1.917583e+00	8.550479e-01	2.345454e+01	2.354833e+01	-1.168008e-06	0	9
	21	1	1	2	510	505	2.872546e+00	2.759618e+00	5.506245e+01	5.520634e+01	-2.336015e-06	0	9
	21	1	1	2	502	508	-5.112272e+00	-3.098397e+00	3.904487e+02	3.904944e+02	0.000000e+00	0	9
</event>
<event>
	20 7000 1.000000e+00 5.173230e+01 7.3e-03 0.118
	21	-1	0	0	508	502	0.000000e+00	0.000000e+00	3.140001e-01	3.140001e-01	0.000000e+00	0	9
	21	-1	0	0	513	504	0.000000e+00	0.000000e+00	-2.130756e+03	2.130756e+03	0.000000e+00	0	9
	1	1	1	2	513	0	-7.113574e-01	8.684720e-01	-2.366385e+01	2.369046e+01	4.800000e-03	0	9
	-1	1	1	2	0	515	3.427011e+00	7.017521e-01	-3.492770e+02	3.492945e+02	4.800000e-03	0	9
	2	1	1	2	505	0	1.951222e+00	2.716293e+00	-3.509432e+02	3.509592e+02	2.299984e-03	0	9
	-2	1	1	2	0	506	4.720738e-01	-6.434273e-01	-1.929998e+01	1.931648e+01	2.300000e-03	0	9
	3	1	1	2	511	0	-1.332830e+00	-1.211513e+00	-2.593675e+01	2.599939e+01	9.500000e-02	0	9
	-3	1	1	2	0	504	-3.280303e-02	1.308517e+00	-1.099528e+02	1.099607e+02	9.500000e-02	0	9
	4	1	1	2	515	0	2.268807e+00	8.998601e-01	-9.707555e+01	9.711460e+01	1.275000e+00	0	9
	-4	1	1	2	0	514	1.614639e+00	1.382728e+00	-2.845782e+01	2.856557e+01	1.275000e+00	0	9
	21	1	1	2	514	516	-5.027380e-01	-1.451410e+00	-4.920210e+01	4.922607e+01	-9.536743e-07	0	9
	21	1	1	2	503	510	-1.575894e-01	3.447244e-01	-4.058899e+01	4.059075e+01	6.743496e-07	0	9
	21	1	1	2	516	502	2.549753e-01	-7.009330e-01	-8.514143e+00	8.546751e+00	1.685874e-07	0	9
	21	1	1	2	509	503	2.870631e+00	-1.078618e+00	-1.054147e+02	1.054593e+02	-1.348699e-06	0	9
	21	1	1	2	506	511	7.107276e-01	-2.028704e+00	-1.338187e+02	1.338360e+02	-1.907349e-06	0	9
	21	1	1	2	501	512	-2.295017e+00	2.790695e+00	-1.912942e+02	1.913283e+02	-2.697398e-06	0	9
	21	1	1	2	510	509	-3.907731e+00	-2.683516e+00	-1.134492e+02	1.135482e+02	0.000000e+00	0	9
	21	1	1	2	508	501	-1.601430e+00	1.877608e+00	-1.931751e+02	1.931908e+02	0.000000e+00	0	9
	21	1	1	2	512	507	-2.047526e+00	-2.017071e+00	-2.690978e+02	2.691131e+02	3.814697e-06	0	9
	21	1	1	2	507	505	-9.810650e-01	-1.075456e+00	-2.127994e+01	2.132967e+01	4.129531e-07	0	9
</event>
<event>
	17 7000 1.000000e+00 5.363316e+01 7.3e-03 0.118
	21	-1	0	0	510	511	0.000000e+00	0.000000e+00	2.662163e-01	2.662163e-01	0.000000e+00	0	9
	21	-1	0	0	512	508	0.000000e+00	0.000000e+00	-2.701297e+03	2.701297e+03	0.000000e+00	0	9
	1	1	1	2	504	0	-2.931967e-01	1.495453e-01	-3.147183e+01	3.147356e+01	4.800000e-03	0	9
	-1	1	1	2	0	502	3.306755e+00	-2.251390e+00	-2.213826e+02	2.214188e+02	4.800000e-03	0	9
	2	1	1	2	509	0	-5.780278e+00	9.591854e+00	-7.390971e+02	7.391819e+02	2.300032e-03	0	9
	-2	1	1	2	0	504	5.462936e+00	3.680567e-01	-2.905845e+02	2.906360e+02	2.299997e-03	0	9
	3	1	1	2	512	0	-1.434174e+00	-3.020770e+00	-2.184441e+02	2.184697e+02	9.500000e-02	0	9
	-3	1	1	2	0	503	-1.326851e+00	1.470103e-02	-3.618611e+01	3.621055e+01	9.500000e-02	0	9
	4	1	1	2	507	0	2.455600e+00	-6.412906e-01	-1.103163e+02	1.103529e+02	1.275000e+00	0	9
	-4	1	1	2	0	506	-2.725692e+00	-3.920396e+00	-1.059255e+02	1.060407e+02	1.275000e+00	0	9
	21	1	1	2	502	501	2.419030e+00	-6.315562e-01	-2.077094e+02	2.077245e+02	-3.814697e-06	0	9
	21	1	1	2	501	509	-9.509404e-01	2.130436e+00	-7.816756e+01	7.820237e+01	0.000000e+00	0	9
	21	1	1	2	506	505	-4.124432e-01	-9.224879e-01	-1.050769e+01	1.055616e+01	4.915125e-07	0	9
	21	1	1	2	513	508	6.092138e-01	1.938484e+00	-8.086779e+01	8.089332e+01	1.651812e-06	0	9
	21	1	1	2	505	507	7.662878e-01	-2.083957e-01	-2.382221e+02	2.382234e+02	-3.814697e-06	0	9
	21	1	1	2	503	511	-1.393782e+00	-1.314742e+00	-2.890354e+02	2.890418e+02	-3.814697e-06	0	9
	21	1	1	2	510	513	-7.024655e-01	-1.282049e+00	-4.311228e+01	4.313706e+01	-8.259062e-07	0	9
</event>
<event>
	18 7000 1.000000e+00 5.124943e+01 7.3e-03 0.118
	21	-1	0	0	514	507	0.000000e+00	0.000000e+00	9.083696e+01	9.083696e+01	0.000000e+00	0	9
	21	-1	0	0	502	508	0.000000e+00	0.000000e+00	-7.228623e+00	7.228623e+00	0.000000e+00	0	9
	1	1	1	2	506	0	-2.045465e-01	6.471356e-01	1.679766e+00	1.811701e+00	4.800000e-03	0	9
	-1	1	1	2	0	501	-1.833955e-01	-8.091624e-02	7.047457e-01	7.327147e-01	4.800000e-03	0	9
	2	1	1	2	513	0	-1.012701e+00	-6.435455e-01	2.404012e+00	2.686818e+00	2.300000e-03	0	9
	-2	1	1	2	0	508	-3.864871e-01	-1.971035e+00	-2.321109e-01	2.021938e+00	2.300000e-03	0	9
	3	1	1	2	510	0	2.623199e+00	-1.776939e+00	7.432756e+00	8.080444e+00	9.500000e-02	0	9
	-3	1	1	2	0	509	-5.177866e-01	-8.775781e-01	1.158706e-01	1.029902e+00	9.500000e-02	0	9
	4	1	1	2	509	0	-7.428490e-03	2.790183e+00	2.639175e+00	4.046733e+00	1.275000e+00	0	9
	-4	1	1	2	0	503	-9.031659e-01	1.039008e+00	3.376415e+00	3.862778e+00	1.275000e+00	0	9
	21	1	1	2	503	513	-2.357022e-04	1.642620e+00	2.183063e+00	2.732025e+00	-5.161914e-08	0	9
	21	1	1	2	505	512	5.032962e+00	2.459013e-01	4.057518e+00	6.469515e+00	-1.192093e-07	0	9
	21	1	1	2	512	507	1.734871e+00	-3.491385e+00	1.479217e+01	1.529732e+01	2.384186e-07	0	9
	21	1	1	2	504	506	-3.424806e+00	2.606947e+00	1.690890e+01	1.744811e+01	0.000000e+00	0	9
	21	1	1	2	511	505	-2.331762e-01	1.884519e+00	2.779746e+00	3.366418e+00	4.214685e-08	0	9
	21	1	1	2	502	510	1.554621e-02	-2.825445e+00	-4.135237e-01	2.855588e+00	1.192093e-07	0	9
	21	1	1	2	501	511	-2.777444e+00	1.944020e-01	2.455590e+01	2.471324e+01	-3.371748e-07	0	9
	21	1	1	2	514	504	2.445941e-01	6.161278e-01	6.239333e-01	9.103475e-01	-1.053671e-08	0	9
</event>
<event>
	16 7000 1.000000e+00 5.125135e+01 7.3e-03 0.118
	21	-1	0	0	507	511	0.000000e+00	0.000000e+00	6.398196e-01	6.398196e-01	0.000000e+00	0	9
	21	-1	0	0	510	508	0.000000e+00	0.000000e+00	-1.026344e+03	1.026344e+03	0.000000e+00	0	9
	1	1	1	2	506	0	2.408667e+00	-3.781780e-01	-9.293459e+01	9.296657e+01	4.800000e-03	0	9
	-1	1	1	2	0	505	3.170856e+00	-1.804854e+00	-6.077825e+01	6.088766e+01	4.800000e-03	0	9
	2	1	1	2	505	0	-4.371369e+00	-3.147011e+00	-2.597050e+02	2.597609e+02	2.300006e-03	0	9
	-2	1	1	2	0	512	1.069167e+00	1.951335e-01	-1.487799e+02	1.487839e+02	2.299999e-03	0	9
	3	1	1	2	504	0	6.896056e-02	3.264736e+00	-1.061504e+02	1.062007e+02	9.500000e-02	0	9
	-3	1	1	2	0	508	-8.149983e-01	-4.283767e-01	-6.038223e+00	6.108756e+00	9.500000e-02	0	9
	4	1	1	2	512	0	1.338982e-01	3.718299e-01	-3.271115e+01	3.273837e+01	1.275000e+00	0	9
	-4	1	1	2	0	501	-1.256311e+00	1.070505e+00	-7.678736e+01	7.681568e+01	1.275000e+00	0	9
	21	1	1	2	503	506	-3.717772e-01	-2.890777e+00	-9.255726e+01	9.260313e+01	0.000000e+00	0	9
	21	1	1	2	507	509	9.241013e-01	-1.427119e+00	-3.471466e+00	3.865451e+00	-1.332800e-07	0	9
	21	1	1	2	501	502	-3.922120e+00	-7.394264e-01	-4.366263e+01	4.384467e+01	8.259062e-07	0	9
	21	1	1	2	510	504	2.411223e-01	9.726018e-01	-1.384278e+01	1.387900e+01	0.000000e+00	0	9
	21	1	1	2	509	511	-6.651176e-01	1.796373e+00	-3.004475e+01	3.010575e+01	3.371748e-07	0	9
	21	1	1	2	502	503	3.384921e+00	3.144564e+00	-5.824055e+01	5.842352e+01	-9.536743e-07	0	9
</event>
<event>
	14 7000 1.000000e+00 7.546132e+01 7.3e-03 0.118
	21	-1	0	0	504	502	0.000000e+00	0.000000e+00	6.928373e+01	6.928373e+01	0.000000e+00	0	9
	21	-1	0	0	509	503	0.000000e+00	0.000000e+00	-2.054743e+01	2.054743e+01	0.000000e+00	0	9
	1	1	1	2	509	0	-6.201174e+00	-9.781247e+00	-2.802274e-01	1.158473e+01	4.800000e-03	0	9
	-1	1	1	2	0	501	2.216049e-01	6.257400e-01	3.442272e+00	3.505698e+00	4.800000e-03	0	9
	2	1	1	2	504	0	-6.611104e+00	-8.875170e-01	1.613521e+01	1.745965e+01	2.300000e-03	0	9
	-2	1	1	2	0	508	2.041294e+00	2.302680e+00	3.848554e+00	4.927534e+00	2.300000e-03	0	9
	3	1	1	2	507	0	4.858699e+00	2.781893e+00	3.898181e-02	5.599681e+00	9.500000e-02	0	9
	-3	1	1	2	0	507	2.434937e+00	3.643063e+00	6.047532e+00	7.468768e+00	9.500000e-02	0	9
	4	1	1	2	510	0	-7.816808e-01	-2.910158e+00	4.366108e-01	3.300954e+00	1.275000e+00	0	9
	-4	1	1	2	0	502	-2.146896e+00	1.557472e+00	-2.418261e-01	2.952793e+00	1.275000e+00	0	9
	21	1	1	2	506	505	1.652471e-01	1.537273e+00	-4.682145e+00	4.930821e+00	2.230202e-07	0	9
	21	1	1	2	508	510	4.328107e+00	3.244032e+00	5.771920e+00	7.910204e+00	8.429370e-08	0	9
	21	1	1	2	505	506	-2.148374e+00	1.965329e+00	4.371188e+00	5.252172e+00	5.960464e-08	0	9
	21	1	1	2	501	503	3.839341e+00	-4.078560e+00	1.384823e+01	1.493816e+01	3.371748e-07	0	9
</event>
<event>
	18 7000 1.000000e+00 5.559141e+01 7.3e-03 0.118
	21	-1	0	0	505	504	0.000000e+00	0.000000e+00	2.193050e+02	2.193050e+02	0.000000e+00	0	9
	21	-1	0	0	507	506	0.000000e+00	0.000000e+00	-3.522953e+00	3.522953e+00	0.000000e+00	0	9
	1	1	1	2	503	0	-8.504070e-01	-1.819114e+00	1.275616e+00	2.378989e+00	4.800000e-03	0	9
	-1	1	1	2	0	509	2.794192e-01	-4.091600e-01	5.934597e+00	5.955245e+00	4.800000e-03	0	9
	2	1	1	2	509	0	1.347311e+00	4.028621e-01	1.280243e+01	1.287944e+01	2.300000e-03	0	9
	-2	1	1	2	0	513	-1.206749e+00	-3.237785e-01	2.039596e+00	2.391868e+00	2.300000e-03	0	9
	3	1	1	2	507	0	-3.209686e-01	-2.270543e-01	1.072697e+00	1.146420e+00	9.500000e-02	0	9
	-3	1	1	2	0	506	2.221961e-01	-4.576070e+00	2.028784e+01	2.079893e+01	9.500000e-02	0	9
	4	1	1	2	513	0	5.064750e-01	6.748816e-01	8.061414e-01	1.728430e+00	1.275000e+00	0	9
	-4	1	1	2	0	501	9.670234e+00	4.787201e+00	6.517646e+01	6.607592e+01	1.275000e+00	0	9
	21	1	1	2	510	512	-4.233716e+00	5.315608e-01	2.371125e+01	2.409212e+01	3.371748e-07	0	9
	21	1	1	2	508	510	-2.395006e+00	-2.095808e+00	3.360602e+00	4.628403e+00	8.429370e-08	0	9
	21	1	1	2	502	508	-2.002249e+00	4.435276e-01	1.346803e+01	1.362327e+01	1.685874e-07	0	9
	21	1	1	2	512	502	-1.859380e+00	2.177091e+00	1.065596e+01	1.103388e+01	0.000000e+00	0	9
	21	1	1	2	514	511	1.379964e+00	9.861461e-01	1.063587e+01	1.077027e+01	0.000000e+00	0	9
	21	1	1	2	505	503	2.202524e+00	-9.195733e-01	2.062468e+01	2.076233e+01	0.000000e+00	0	9
	21	1	1	2	501	514	7.707396e-01	-1.405210e+00	6.662741e+00	6.852793e+00	8.429370e-08	0	9
	21	1	1	2	511	504	-3.510387e+00	1.772497e+00	1.726755e+01	1.770968e+01	-2.384186e-07	0	9
</event>
<event>
	19 7000 1.000000e+00 6.019374e+01 7.3e-03 0.118
	21	-1	0	0	511	514	0.000000e+00	0.000000e+00	5.737890e+02	5.737890e+02	0.000000e+00	0	9
	21	-1	0	0	508	503	0.000000e+00	0.000000e+00	-1.578666e+00	1.578666e+00	0.000000e+00	0	9
	1	1	1	2	510	0	-7.680249e-01	1.865472e-01	2.008800e+00	2.158695e+00	4.800000e-03	0	9
	-1	1	1	2	0	507	-1.421091e-01	3.262949e+00	3.690221e+01	3.704646e+01	4.800000e-03	0	9
	2	1	1	2	515	0	-3.119036e+00	-2.209106e+00	2.471280e+01	2.500662e+01	2.300000e-03	0	9
	-2	1	1	2	0	513	-5.756814e-01	-2.209770e-01	6.312545e-01	8.824553e-01	2.300000e-03	0	9
	3	1	1	2	508	0	-1.627708e+00	-1.199177e+00	1.999599e+01	2.009816e+01	9.500000e-02	0	9
	-3	1	1	2	0	502	3.542225e+00	-5.737098e-01	2.975970e+01	2.997542e+01	9.500000e-02	0	9
	4	1	1	2	501	0	-3.989196e+00	8.815466e-01	1.211156e+01	1.284548e+01	1.275000e+00	0	9
	-4	1	1	2	0	509	-8.553666e-01	-2.438857e+00	2.669703e+01	2.685212e+01	1.275000e+00	0	9
	21	1	1	2	509	515	1.926434e-02	-4.673740e-01	1.439921e+01	1.440681e+01	0.000000e+00	0	9
	21	1	1	2	506	512	2.643678e+00	-1.188954e+00	2.168824e+01	2.188110e+01	0.000000e+00	0	9
	21	1	1	2	505	504	-1.405136e-01	-6.704847e-01	3.156442e+01	3.157185e+01	-4.768372e-07	0	9
	21	1	1	2	513	510	-4.866662e-02	-7.653508e-01	2.007166e+00	2.148685e+00	-2.980232e-08	0	9
	21	1	1	2	507	501	3.375282e+00	5.946621e-01	3.011515e+01	3.030955e+01	0.000000e+00	0	9
	21	1	1	2	512	503	1.067392e+00	-6.952729e-01	1.295161e+01	1.301410e+01	-2.920019e-07	0	9
	21	1	1	2	502	506	-3.928047e+00	9.454666e-01	1.879388e+02	1.879822e+02	0.000000e+00	0	9
	21	1	1	2	504	505	3.391301e+00	6.228582e+00	5.864895e+01	5.907618e+01	-6.743496e-07	0	9
	21	1	1	2	511	514	1.155205e+00	-1.670490e+00	6.007749e+01	6.011181e+01	0.000000e+00	0	9
</event>
<event>
	16 7000 1.000000e+00 5.991574e+01 7.3e-03 0.118
	21	-1	0	0	509	510	0.000000e+00	0.000000e+00	1.919873e-01	1.919873e-01	0.000000e+00	0	9
	21	-1	0	0	503	506	0.000000e+00	0.000000e+00	-4.674654e+03	4.674654e+03	0.000000e+00	0	9
	1	1	1	2	501	0	-4.381332e+00	-2.299406e+00	-1.050662e+03	1.050673e+03	4.800023e-03	0	9
	-1	1	1	2	0	504	7.858509e-01	-5.648549e-01	-2.898364e+01	2.899979e+01	4.800000e-03	0	9
	2	1	1	2	508	0	4.577572e-01	8.032804e-01	-2.971265e+01	2.972703e+01	2.300000e-03	0	9
	-2	1	1	2	0	507	-2.842017e+00	9.563864e-01	-9.688476e+01	9.693115e+01	2.300001e-03	0	9
	3	1	1	2	509	0	-3.138280e-01	1.667129e+00	-5.846457e+01	5.848926e+01	9.500000e-02	0	9
	-3	1	1	2	0	502	-2.000171e-01	3.472437e-01	-1.528821e+01	1.529375e+01	9.500000e-02	0	9
	4	1	1	2	511	0	2.210838e-01	-4.471305e+00	-1.840704e+02	1.841292e+02	1.275000e+00	0	9
	-4	1	1	2	0	512	-6.283592e-01	1.207719e+00	-2.346504e+02	2.346578e+02	1.275000e+00	0	9
	21	1	1	2	505	501	7.715387e+00	1.519557e+00	-5.934741e+02	5.935262e+02	7.629395e-06	0	9
	21	1	1	2	502	508	1.353935e+00	-4.118320e+00	-2.047740e+02	2.048199e+02	0.000000e+00	0	9
	21	1	1	2	507	511	6.030309e-01	5.694427e-01	-8.319065e+01	8.319479e+01	9.536743e-07	0	9
	21	1	1	2	512	505	6.212642e+00	5.828475e+00	-7.105873e+02	7.106383e+02	0.000000e+00	0	9
	21	1	1	2	504	510	-5.142314e+00	-4.088397e+00	-8.469439e+02	8.469694e+02	1.868812e-05	0	9
	21	1	1	2	503	506	-3.841821e+00	2.643049e+00	-5.367759e+02	5.367962e+02	1.525879e-05	0	9
</event>
<event>
	19 7000 1.000000e+00 5.017336e+01 7.3e-03 0.118
	21	-1	0	0	504	502	0.000000e+00	0.000000e+00	6.075435e+03	6.075435e+03	0.000000e+00	0	9
	21	-1	0	0	508	504	0.000000e+00	0.000000e+00	-1.035879e-01	1.035879e-01	0.000000e+00	0	9
	1	1	1	2	515	0	-6.459265e-02	1.372882e+00	1.515636e+02	1.515698e+02	4.800000e-03	0	9
	-1	1	1	2	0	512	6.216157e-01	9.517020e-01	1.700115e+02	1.700153e+02	4.800001e-03	0	9
	2	1	1	2	512	0	-2.273673e+00	8.620376e-01	2.113960e+02	2.114100e+02	2.300003e-03	0	9
	-2	1	1	2	0	511	-3.649900e+00	-5.048499e+00	1.148208e+03	1.148225e+03	2.300082e-03	0	9
	3	1	1	2	506	0	2.422515e+00	-5.885821e+00	1.466328e+03	1.466342e+03	9.500000e-02	0	9
	-3	1	1	2	0	501	-4.902879e-01	1.166665e+00	1.218432e+02	1.218498e+02	9.500000e-02	0	9
	4	1	1	2	508	0	-3.557942e+00	7.238771e-01	3.474487e+02	3.474700e+02	1.275000e+00	0	9
	-4	1	1	2	0	513	-4.634041e-01	-4.401658e-01	4.648311e+02	4.648333e+02	1.275000e+00	0	9
	21	1	1	2	507	509	2.569261e+00	1.118558e+00	4.643797e+02	4.643882e+02	-5.394797e-06	0	9
	21	1	1	2	509	506	7.843980e-01	-3.614070e-01	1.330062e+02	1.330090e+02	1.907349e-06	0	9
	21	1	1	2	503	510	-7.835712e-01	5.006031e-01	2.260296e+02	2.260315e+02	-2.697398e-06	0	9
	21	1	1	2	510	507	-7.684758e-01	1.104816e+00	2.441510e+02	2.441547e+02	-2.697398e-06	0	9
	21	1	1	2	501	515	3.324908e+00	3.160362e+00	7.243975e+02	7.244120e+02	0.000000e+00	0	9
	21	1	1	2	511	514	1.167905e+00	1.029475e+00	7.728030e+01	7.729598e+01	9.536743e-07	0	9
	21	1	1	2	514	503	2.921820e-01	-1.603616e+00	4.449856e+01	4.452840e+01	2.567847e-06	0	9
	21	1	1	2	513	505	1.035264e+00	1.583781e+00	7.812577e+01	7.814868e+01	0.000000e+00	0	9
	21	1	1	2	505	502	-1.662022e-01	-2.352490e-01	1.832597e+00	1.855095e+00	2.269677e-07	0	9
</event>
<event>
	18 7000 1.000000e+00 5.154175e+01 7.3e-03 0.118
	21	-1	0	0	514	505	0.000000e+00	0.000000e+00	3.791127e+00	3.791127e+00	0.000000e+00	0	9
	21	-1	0	0	511	514	0.000000e+00	0.000000e+00	-1.751822e+02	1.751822e+02	0.000000e+00	0	9
	1	1	1	2	510	0	-1.471498e+00	2.728638e+00	-9.781020e+00	1.026056e+01	4.800000e-03	0	9
	-1	1	1	2	0	506	4.087905e+00	1.593201e+00	-6.265183e+00	7.648647e+00	4.800000e-03	0	9
	2	1	1	2	508	0	-4.350913e-01	6.201784e-01	-7.286855e+00	7.326131e+00	2.300000e-03	0	9
	-2	1	1	2	0	505	3.392010e+00	-6.450075e+00	-1.915525e+01	2.049470e+01	2.300000e-03	0	9
	3	1	1	2	507	0	-2.749318e+00	1.716414e+00	-4.496624e+00	5.543779e+00	9.500000e-02	0	9
	-3	1	1	2	0	501	-5.546914e+00	8.903274e-01	-2.694294e+01	2.752257e+01	9.500000e-02	0	9
	4	1	1	2	503	0	-8.215007e-01	1.676204e+00	-4.222293e+00	4.789353e+00	1.275000e+00	0	9
	-4	1	1	2	0	509	1.885013e+00	-3.612989e+00	-1.381779e+01	1.446250e+01	1.275000e+00	0	9
	21	1	1	2	509	513	-5.520069e-02	-5.017461e-01	-3.089102e+00	3.130071e+00	-4.214685e-08	0	9
	21	1	1	2	513	512	8.325648e-01	2.390001e+00	-7.389767e+00	7.811141e+00	-8.429370e-08	0	9
	21	1	1	2	502	507	2.162862e+00	-1.137832e+00	-8.508952e+00	8.852960e+00	0.000000e+00	0	9
	21	1	1	2	512	508	-6.297177e-01	-2.821775e-01	-1.251802e+01	1.253703e+01	0.000000e+00	0	9
	21	1	1	2	506	510	1.734793e-01	3.285514e+00	-2.052939e+01	2.079135e+01	-4.129531e-07	0	9
	21	1	1	2	504	503	-1.619234e+00	-2.951637e+00	-1.782625e+01	1.814136e+01	3.371748e-07	0	9
	21	1	1	2	511	504	1.341056e-01	-2.426959e-01	-6.872647e+00	6.878238e+00	-8.429370e-08	0	9
	21	1	1	2	501	502	6.605345e-01	2.786757e-01	-2.688952e+00	2.782881e+00	-4.214685e-08	0	9
</event>
<event>
	17 7000 1.000000e+00 5.025823e+01 7.3e-03 0.118
	21	-1	0	0	509	502	0.000000e+00	0.000000e+00	9.942972e+00	9.942972e+00	0.000000e+00	0	9
	21	-1	0	0	512	506	0.000000e+00	0.000000e+00	-6.350942e+01	6.350942e+01	0.000000e+00	0	9
	1	1	1	2	509	0	-4.159457e-01	-8.066808e-01	-1.125545e+00	1.445897e+00	4.800000e-03	0	9
	-1	1	1	2	0	506	1.374951e-01	-4.069416e+00	-2.080567e+00	4.572508e+00	4.800000e-03	0	9
	2	1	1	2	507	0	-1.241997e+00	2.249774e+00	-5.974687e+00	6.503916e+00	2.300000e-03	0	9
	-2	1	1	2	0	501	1.468841e-01	1.671457e-01	3.051107e-01	3.776380e-01	2.300000e-03	0	9
	3	1	1	2	501	0	8.485369e-01	-5.947983e-01	6.841884e-01	1.245367e+00	9.500000e-02	0	9
	-3	1	1	2	0	504	1.552666e+00	4.603942e-01	9.968329e-02	1.625329e+00	9.500000e-02	0	9
	4	1	1	2	508	0	1.391860e-01	-4.266178e-01	-2.040517e+00	2.447593e+00	1.275000e+00	0	9
	-4	1	1	2	0	510	1.535326e+00	2.001672e+00	-7.616693e+00	8.124257e+00	1.275000e+00	0	9
	21	1	1	2	512	503	1.809823e+00	9.652728e-02	2.596992e-01	1.830907e+00	2.980232e-08	0	9
	21	1	1	2	503	508	-4.736283e+00	6.507079e+00	-9.137132e+00	1.217627e+01	0.000000e+00	0	9
	21	1	1	2	504	511	1.040846e+00	2.534649e-01	8.982193e-01	1.398000e+00	3.942477e-08	0	9
	21	1	1	2	505	513	-5.913340e-01	-1.210080e-02	-1.091961e+00	1.241854e+00	0.000000e+00	0	9
	21	1	1	2	511	507	3.350196e+00	1.003125e+00	-8.426422e+00	9.123303e+00	0.000000e+00	0	9
	21	1	1	2	510	502	-3.062626e+00	-3.094769e+00	-1.666166e+01	1.722116e+01	-2.384186e-07	0	9
	21	1	1	2	513	505	-5.127724e-01	-3.734799e+00	-1.658165e+00	4.118395e+00	-1.032383e-07	0	9
</event>
<event>
	16 7000 1.000000e+00 5.204006e+01 7.3e-03 0.118
	21	-1	0	0	504	505	0.000000e+00	0.000000e+00	2.149163e+01	2.149163e+01	0.000000e+00	0	9
	21	-1	0	0	502	511	0.000000e+00	0.000000e+00	-3.150259e+01	3.150259e+01	0.000000e+00	0	9
	1	1	1	2	507	0	1.807860e+00	-6.780695e-02	9.192348e-02	1.811472e+00	4.800000e-03	0	9
	-1	1	1	2	0	503	1.420179e+00	-1.709731e+00	4.192940e+00	4.745615e+00	4.800000e-03	0	9
	2	1	1	2	504	0	2.763949e+00	1.010686e+00	2.454134e+00	3.831929e+00	2.300000e-03	0	9
	-2	1	1	2	0	505	-1.225929e+00	-3.620629e+00	4.264783e-02	3.822784e+00	2.300000e-03	0	9
	3	1	1	2	512	0	4.511474e+00	6.527676e-01	-6.185739e+00	7.684523e+00	9.500000e-02	0	9
	-3	1	1	2	0	501	2.334369e+00	-1.989771e+00	-2.628053e+00	4.040317e+00	9.500000e-02	0	9
	4	1	1	2	502	0	-4.265986e+00	-7.968779e-01	1.727320e+00	4.841788e+00	1.275000e+00	0	9
	-4	1	1	2	0	508	-6.606441e-01	1.864105e-01	-1.465388e+00	2.060142e+00	1.275000e+00	0	9
	21	1	1	2	510	511	-8.084781e-01	-9.770142e-01	-9.439000e-01	1.580867e+00	2.980232e-08	0	9
	21	1	1	2	508	510	-1.196449e+00	9.004897e-01	-2.466863e+00	2.885790e+00	-5.960464e-08	0	9
	21	1	1	2	506	512	-3.533410e-01	-8.586134e-01	6.566503e-01	1.137214e+00	0.000000e+00	0	9
	21	1	1	2	509	506	-5.094359e+00	3.783590e+00	-2.223397e+00	6.723953e+00	1.192093e-07	0	9
	21	1	1	2	501	507	7.848922e-01	-9.970747e-01	-3.090520e+00	3.340887e+00	-5.960464e-08	0	9
	21	1	1	2	503	509	-1.753790e-02	4.483573e+00	-1.727120e-01	4.486933e+00	5.960464e-08	0	9
</event>
<event>
	15 7000 1.000000e+00 5.485013e+01 7.3e-03 0.118
	21	-1	0	0	506	503	0.000000e+00	0.000000e+00	1.265665e+02	1.265665e+02	0.000000e+00	0	9
	21	-1	0	0	502	505	0.000000e+00	0.000000e+00	-5.942600e+00	5.942600e+00	0.000000e+00	0	9
	1	1	1	2	504	0	8.425187e-01	-1.761552e+00	1.107304e+01	1.124390e+01	4.800000e-03	0	9
	-1	1	1	2	0	501	-1.536728e+00	1.032855e+00	3.517089e+01	3.521959e+01	4.800000e-03	0	9
	2	1	1	2	501	0	4.651673e+00	-1.035556e+00	5.878992e+00	7.567892e+00	2.300000e-03	0	9
	-2	1	1	2	0	509	-2.108537e+00	1.890606e+00	6.070935e+00	6.698998e+00	2.300000e-03	0	9
	3	1	1	2	502	0	1.349123e-01	8.905722e-01	7.671136e-01	1.186932e+00	9.500000e-02	0	9
	-3	1	1	2	0	508	-6.135675e+00	-1.654605e+00	9.325391e+00	1.128522e+01	9.500000e-02	0	9
	4	1	1	2	507	0	1.471914e+00	-4.168053e+00	1.417486e+01	1.490273e+01	1.275000e+00	0	9
	-4	1	1	2	0	504	-1.111863e+00	5.761417e-01	5.626003e-01	1.873585e+00	1.275000e+00	0	9
	21	1	1	2	509	505	-1.942294e+00	-4.733812e-01	4.395168e-02	1.999632e+00	-4.214685e-08	0	9
	21	1	1	2	511	510	2.095682e+00	-3.728018e-01	5.643096e+00	6.031202e+00	-1.192093e-07	0	9
	21	1	1	2	508	503	3.762307e+00	7.706796e+00	1.616319e+01	1.829750e+01	-2.384186e-07	0	9
	21	1	1	2	510	511	8.174824e-01	-5.445823e-01	1.671817e+00	1.939025e+00	3.650024e-08	0	9
	21	1	1	2	506	507	-9.413918e-01	-2.086440e+00	1.407803e+01	1.426290e+01	0.000000e+00	0	9
</event>
<event>
	20 7000 1.000000e+00 5.537092e+01 7.3e-03 0.118
	21	-1	0	0	509	511	0.000000e+00	0.000000e+00	8.810830e-01	8.810830e-01	0.000000e+00	0	9
	21	-1	0	0	508	504	0.000000e+00	0.000000e+00	-8.699348e+02	8.699348e+02	0.000000e+00	0	9
	1	1	1	2	516	0	2.794292e+00	-2.523309e+00	-5.123723e+01	5.137537e+01	4.800000e-03	0	9
	-1	1	1	2	0	502	-8.141825e-01	-2.442700e+00	-2.415291e+01	2.428977e+01	4.800000e-03	0	9
	2	1	1	2	509	0	-3.474093e-01	2.350591e-02	-1.054384e+01	1.054959e+01	2.300000e-03	0	9
	-2	1	1	2	0	507	1.160066e+00	2.975234e+00	-1.479849e+02	1.480194e+02	2.300001e-03	0	9
	3	1	1	2	501	0	4.806729e+00	5.199004e-01	-6.423985e+01	6.442159e+01	9.500000e-02	0	9
	-3	1	1	2	0	503	-1.644177e+00	2.243305e-02	-7.676310e+00	7.851025e+00	9.500000e-02	0	9
	4	1	1	2	512	0	-1.093738e+00	9.638462e-01	-3.426592e+01	3.432061e+01	1.275000e+00	0	9
	-4	1	1	2	0	513	3.742263e+00	-1.390258e+00	-1.409770e+02	1.410393e+02	1.275000e+00	0	9
	21	1	1	2	510	512	5.047461e-01	-4.074175e-01	-7.807152e-01	1.015024e+00	7.450581e-08	0	9
	21	1	1	2	513	510	-1.131340e-01	6.388670e+00	-7.974601e+01	8.000159e+01	-1.651812e-06	0	9
	21	1	1	2	508	505	2.576705e-01	3.513705e-01	-7.042190e+00	7.055657e+00	-8.429370e-08	0	9
	21	1	1	2	507	506	-6.882367e-01	-1.303124e-01	-4.729400e+01	4.729919e+01	-6.743496e-07	0	9
	21	1	1	2	506	504	-2.282738e+00	-1.546092e+00	-4.927964e+01	4.935670e+01	6.743496e-07	0	9
	21	1	1	2	515	501	6.095044e-01	7.280324e-01	-5.575572e+00	5.655840e+00	-1.685874e-07	0	9
	21	1	1	2	514	511	-9.572567e-01	-1.525845e+00	-5.243116e+01	5.246209e+01	0.000000e+00	0	9
	21	1	1	2	505	515	-3.917404e-01	-1.678700e+00	-2.222885e+01	2.229559e+01	0.000000e+00	0	9
	21	1	1	2	503	516	-4.578127e+00	-7.943252e-01	-5.338621e+01	5.358804e+01	0.000000e+00	0	9
	21	1	1	2	502	514	-9.645303e-01	4.659660e-01	-7.021137e+01	7.021954e+01	9.536743e-07	0	9
</event>
<event>
	16 7000 1.000000e+00 5.081490e+01 7.3e-03 0.118
	21	-1	0	0	509	511	0.000000e+00	0.000000e+00	1.525394e-01	1.525394e-01	0.000000e+00	0	9
	21	-1	0	0	507	510	0.000000e+00	0.000000e+00	-4.231946e+03	4.231946e+03	0.000000e+00	0	9
	1	1	1	2	504	0	1.253413e+00	2.530696e+00	-5.545673e+02	5.545745e+02	4.799999e-03	0	9
	-1	1	1	2	0	504	-1.619330e+00	-4.850692e+00	-2.127399e+02	2.128013e+02	4.799998e-03	0	9
	2	1	1	2	506	0	-2.336198e+00	8.880997e-01	-5.619643e+02	5.619699e+02	2.300006e-03	0	9
	-2	1	1	2	0	511	-1.029566e+00	-1.562396e+00	-1.013233e+02	1.013406e+02	2.300000e-03	0	9
	3	1	1	2	509	0	-2.131100e+00	-1.380270e-01	-3.566048e+02	3.566112e+02	9.500000e-02	0	9
	-3	1	1	2	0	502	6.364461e-01	1.432274e+00	-1.023253e+02	1.023373e+02	9.500000e-02	0	9
	4	1	1	2	508	0	6.194230e-01	1.641455e+00	-3.472008e+02	3.472076e+02	1.275000e+00	0	9
	-4	1	1	2	0	510	-3.000378e+00	3.866260e-01	-5.113526e+02	5.113632e+02	1.275000e+00	0	9
	21	1	1	2	507	512	-3.398649e-01	-2.976133e+00	-4.570100e+02	4.570198e+02	-5.394797e-06	0	9
	21	1	1	2	512	506	1.332294e+00	-1.913139e+00	-1.739756e+02	1.739913e+02	-1.907349e-06	0	9
	21	1	1	2	505	501	2.554921e+00	3.424647e+00	-3.662893e+02	3.663143e+02	0.000000e+00	0	9
	21	1	1	2	503	508	1.478732e+00	4.029266e+00	-1.419966e+02	1.420615e+02	-3.303625e-06	0	9
	21	1	1	2	502	503	1.691504e-01	1.441583e+00	-1.140700e+02	1.140793e+02	1.348699e-06	0	9
	21	1	1	2	501	505	2.412058e+00	-4.334260e+00	-2.303738e+02	2.304272e+02	-2.697398e-06	0	9
</event>
<event>
	18 7000 1.000000e+00 5.064009e+01 7.3e-03 0.118
	21	-1	0	0	514	504	0.000000e+00	0.000000e+00	2.756862e+00	2.756862e+00	0.000000e+00	0	9
	21	-1	0	0	503	501	0.000000e+00	0.000000e+00	-2.325486e+02	2.325486e+02	0.000000e+00	0	9
	1	1	1	2	509	0	1.384958e+00	-1.161079e+00	-4.523787e+01	4.527396e+01	4.800000e-03	0	9
	-1	1	1	2	0	513	-5.191225e-02	5.511933e-01	-4.639120e+00	4.672041e+00	4.800000e-03	0	9
	2	1	1	2	514	0	-1.125825e+00	1.512460e+00	-6.124775e+00	6.408423e+00	2.300000e-03	0	9
	-2	1	1	2	0	510	-2.125200e+00	-4.465436e+00	-2.392655e+01	2.443229e+01	2.300000e-03	0	9
	3	1	1	2	505	0	9.022767e-01	-1.830908e+00	-2.818051e+00	3.480914e+00	9.500000e-02	0	9
	-3	1	1	2	0	509	-2.542299e+00	-5.638868e+00	-2.368773e+01	2.448219e+01	9.500000e-02	0	9
	4	1	1	2	512	0	1.805628e+00	8.464685e-01	-1.127085e+01	1.151670e+01	1.275000e+00	0	9
	-4	1	1	2	0	511	8.269840e-02	3.578406e-01	-2.353291e+01	2.357028e+01	1.275000e+00	0	9
	21	1	1	2	507	508	1.819569e+00	2.842697e-01	-6.040527e+00	6.315031e+00	-1.192093e-07	0	9
	21	1	1	2	502	504	-1.793593e-01	4.300956e-01	-9.861791e-01	1.090734e+00	-2.107342e-08	0	9
	21	1	1	2	511	502	-8.363034e-01	-4.364160e-01	-1.172693e+01	1.176481e+01	0.000000e+00	0	9
	21	1	1	2	513	506	-4.500988e+00	4.874966e+00	-2.967847e+01	3.041111e+01	-3.371748e-07	0	9
	21	1	1	2	508	505	5.733039e-01	5.466774e+00	-1.247034e+01	1.362805e+01	-3.371748e-07	0	9
	21	1	1	2	510	512	2.559226e-01	-3.083345e-01	-8.932633e-01	9.790229e-01	-3.161014e-08	0	9
	21	1	1	2	506	507	2.802586e+00	-7.015096e-01	-9.401882e+00	9.835751e+00	-1.685874e-07	0	9
	21	1	1	2	503	501	1.734944e+00	2.184825e-01	-1.735635e+01	1.744421e+01	-2.384186e-07	0	9
</event>
<event>
	12 7000 1.000000e+00 5.416503e+01 7.3e-03 0.118
	21	-1	0	0	506	504	0.000000e+00	0.000000e+00	1.077677e+02	1.077677e+02	0.000000e+00	0	9
	21	-1	0	0	504	507	0.000000e+00	0.000000e+00	-6.805958e+00	6.805958e+00	0.000000e+00	0	9
	1	1	1	2	505	0	5.185533e+00	3.109019e+00	3.139146e+00	6.812489e+00	4.800000e-03	0	9
	-1	1	1	2	0	505	8.346076e-01	-2.265760e-01	5.187245e+00	5.258844e+00	4.800000e-03	0	9
	2	1	1	2	508	0	8.778159e+00	2.421545e+00	1.639706e+01	1.875590e+01	2.300000e-03	0	9
	-2	1	1	2	0	502	6.131831e-02	-5.752143e+00	1.456171e+01	1.565677e+01	2.300000e-03	0	9
	3	1	1	2	501	0	-1.003798e+01	2.377070e-01	2.132287e+01	2.356886e+01	9.500000e-02	0	9
	-3	1	1	2	0	508	-1.453468e-01	2.837442e-01	7.911644e-02	3.419369e-01	9.500000e-02	0	9
	4	1	1	2	506	0	-1.027517e+00	1.858529e+00	5.695931e+00	6.211214e+00	1.275000e+00	0	9
	-4	1	1	2	0	503	4.179161e+00	-7.359161e-01	8.132201e+00	9.260954e+00	1.275000e+00	0	9
	21	1	1	2	503	501	-8.849308e+00	-1.809824e+00	1.762103e+01	1.980118e+01	2.384186e-07	0	9
	21	1	1	2	502	507	1.021378e+00	6.139143e-01	8.825448e+00	8.905539e+00	0.000000e+00	0	9
</event>
<event>
	17 7000 1.000000e+00 5.796625e+01 7.3e-03 0.118
	21	-1	0	0	509	502	0.000000e+00	0.000000e+00	2.315110e+00	2.315110e+00	0.000000e+00	0	9
	21	-1	0	0	510	508	0.000000e+00	0.000000e+00	-3.628430e+02	3.628430e+02	0.000000e+00	0	9
	1	1	1	2	513	0	-1.967163e+00	-9.728734e-02	-2.620219e+00	3.277921e+00	4.800000e-03	0	9
	-1	1	1	2	0	502	-1.824280e+00	-3.202520e+00	-1.524358e+01	1.568282e+01	4.800000e-03	0	9
	2	1	1	2	506	0	6.747295e+00	-5.645954e+00	-5.835829e+01	5.901773e+01	2.300000e-03	0	9
	-2	1	1	2	0	505	-1.672214e+00	-1.433393e+00	-2.496712e+01	2.506408e+01	2.300000e-03	0	9
	3	1	1	2	503	0	6.248855e+00	4.043099e+00	-5.762221e+01	5.810097e+01	9.500000e-02	0	9
	-3	1	1	2	0	507	-7.365537e-01	5.764221e-01	-1.348248e+01	1.351522e+01	9.500000e-02	0	9
	4	1	1	2	509	0	4.389337e+00	3.055524e+00	-3.789760e+01	3.829434e+01	1.275000e+00	0	9
	-4	1	1	2	0	506	1.380995e+00	-1.055569e-01	-2.032169e+01	2.040870e+01	1.275000e+00	0	9
	21	1	1	2	501	504	1.092327e+00	-2.520800e+00	-3.662815e+01	3.673104e+01	0.000000e+00	0	9
	21	1	1	2	507	511	-1.647577e+00	2.897433e+00	-2.868926e+01	2.888223e+01	4.768372e-07	0	9
	21	1	1	2	510	503	-2.806892e+00	-1.269417e+00	-1.321055e+01	1.356498e+01	2.384186e-07	0	9
	21	1	1	2	511	512	-3.414076e+00	1.525313e+00	-1.214878e+01	1.271123e+01	0.000000e+00	0	9
	21	1	1	2	505	501	-1.359857e+00	5.992447e-02	-4.139516e+00	4.357567e+00	1.332800e-07	0	9
	21	1	1	2	512	508	-4.007135e-01	4.088390e-01	-2.931681e+00	2.987051e+00	-4.214685e-08	0	9
	21	1	1	2	504	513	-4.029483e+00	1.708374e+00	-3.226675e+01	3.256223e+01	0.000000e+00	0	9
</event>
<event>
	18 7000 1.000000e+00 5.249399e+01 7.3e-03 0.118
	21	-1	0	0	514	511	0.000000e+00	0.000000e+00	2.796028e+02	2.796028e+02	0.000000e+00	0	9
	21	-1	0	0	507	513	0.000000e+00	0.000000e+00	-2.463869e+00	2.463869e+00	0.000000e+00	0	9
	1	1	1	2	501	0	-3.931914e-01	6.842571e-01	7.750423e-01	1.106129e+00	4.800000e-03	0	9
	-1	1	1	2	0	513	1.045713e+00	-2.907692e-01	1.671209e+00	1.992743e+00	4.800000e-03	0	9
	2	1	1	2	503	0	-2.539674e+00	2.267806e+00	2.321188e+01	2.346027e+01	2.300000e-03	0	9
	-2	1	1	2	0	505	1.968643e-01	-5.370567e-01	4.875487e+01	4.875822e+01	2.300000e-03	0	9
	3	1	1	2	514	0	5.980325e-01	-2.378574e+00	1.089700e+01	1.117000e+01	9.500000e-02	0	9
	-3	1	1	2	0	501	-1.615901e+00	2.089053e+00	7.777419e+00	8.214168e+00	9.500000e-02	0	9
	4	1	1	2	512	0	2.129346e+00	3.267209e+00	1.839315e+01	1.884522e+01	1.275000e+00	0	9
	-4	1	1	2	0	511	-2.770669e+00	1.596405e+00	1.139518e+01	1.190382e+01	1.275000e+00	0	9
	21	1	1	2	509	503	1.704785e+00	-3.497496e+00	3.699605e+01	3.720008e+01	0.000000e+00	0	9
	21	1	1	2	507	512	6.269151e-01	-1.716748e+00	7.660993e+00	7.875980e+00	1.192093e-07	0	9
	21	1	1	2	508	504	3.007048e+00	-3.124830e+00	7.949387e+00	9.055367e+00	-2.920019e-07	0	9
	21	1	1	2	506	502	-1.920090e-01	-4.605932e-01	9.264960e+00	9.278389e+00	1.192093e-07	0	9
	21	1	1	2	502	509	5.952018e-01	5.038708e-02	3.479515e+00	3.530414e+00	4.214685e-08	0	9
	21	1	1	2	505	510	8.242853e-01	6.349885e-01	4.827967e+00	4.938818e+00	-5.960464e-08	0	9
	21	1	1	2	504	506	1.365966e-01	1.486639e+00	1.614092e+00	2.198647e+00	-5.960464e-08	0	9
	21	1	1	2	510	508	-3.353344e+00	-7.067917e-02	8.247026e+01	8.253844e+01	-9.536743e-07	0	9
</event>
<event>
	14 7000 1.000000e+00 5.378948e+01 7.3e-03 0.118
	21	-1	0	0	506	502	0.000000e+00	0.000000e+00	2.560965e+00	2.560965e+00	0.000000e+00	0	9
	21	-1	0	0	503	501	0.000000e+00	0.000000e+00	-2.824431e+02	2.824431e+02	0.000000e+00	0	9
	1	1	1	2	508	0	-2.487919e+00	-4.254313e+00	-1.497150e+01	1.576182e+01	4.800000e-03	0	9
	-1	1	1	2	0	507	3.977082e+00	-1.992463e+00	-1.351138e+01	1.422478e+01	4.800000e-03	0	9
	2	1	1	2	503	0	1.289564e+00	-8.260870e-01	-7.893442e+00	8.040636e+00	2.300000e-03	0	9
	-2	1	1	2	0	510	4.474977e+00	-2.951952e+00	-5.229364e+01	5.256771e+01	2.300000e-03	0	9
	3	1	1	2	505	0	-3.876359e+00	1.692218e+00	-4.857053e+00	6.441254e+00	9.500000e-02	0	9
	-3	1	1	2	0	502	8.553209e-01	-3.399881e-01	-1.565091e+01	1.567824e+01	9.500000e-02	0	9
	4	1	1	2	507	0	-2.389039e-01	3.668283e+00	-2.933062e+01	2.958757e+01	1.275000e+00	0	9
	-4	1	1	2	0	508	6.272421e-01	4.106797e+00	-1.363951e+01	1.431506e+01	1.275000e+00	0	9
	21	1	1	2	510	504	-8.724827e-01	-1.268532e+00	-3.445909e+00	3.774214e+00	7.300048e-08	0	9
	21	1	1	2	504	509	-2.354023e+00	3.995895e+00	-6.467399e+01	6.484006e+01	0.000000e+00	0	9
	21	1	1	2	506	501	2.676698e-01	-1.782153e-02	-4.051673e+01	4.051762e+01	4.768372e-07	0	9
	21	1	1	2	509	505	-1.662169e+00	-1.812037e+00	-1.909749e+01	1.925514e+01	3.371748e-07	0	9
</event>
<event>
	20 7000 1.000000e+00 5.533248e+01 7.3e-03 0.118
	21	-1	0	0	516	509	0.000000e+00	0.000000e+00	6.676241e+00	6.676241e+00	0.000000e+00	0	9
	21	-1	0	0	513	514	0.000000e+00	0.000000e+00	-1.146485e+02	1.146485e+02	0.000000e+00	0	9
	1	1	1	2	516	0	-9.590379e-01	1.251913e+00	-3.405396e+00	3.752837e+00	4.800000e-03	0	9
	-1	1	1	2	0	515	1.419620e+00	2.016662e+00	-1.190241e+01	1.215523e+01	4.800000e-03	0	9
	2	1	1	2	513	0	-1.146147e+00	8.983329e-02	-1.539568e+00	1.921457e+00	2.300000e-03	0	9
	-2	1	1	2	0	510	-2.445581e+00	2.414858e+00	-1.206309e+01	1.254315e+01	2.300000e-03	0	9
	3	1	1	2	501	0	1.767449e+00	-1.340265e+00	-1.058851e+01	1.081877e+01	9.500000e-02	0	9
	-3	1	1	2	0	503	-1.171122e-01	-4.128538e+00	-6.414143e+00	7.629469e+00	9.500000e-02	0	9
	4	1	1	2	512	0	-5.759225e-01	-2.040025e-01	-3.247826e+00	3.542217e+00	1.275000e+00	0	9
	-4	1	1	2	0	507	1.751243e+00	1.962557e+00	-1.393779e+01	1.424100e+01	1.275000e+00	0	9
	21	1	1	2	505	506	-3.933108e+00	2.871310e+00	-2.326457e+01	2.376876e+01	0.000000e+00	0	9
	21	1	1	2	506	511	6.227648e-01	-2.091584e+00	5.150428e-01	2.242282e+00	1.264405e-07	0	9
	21	1	1	2	510	512	7.628499e-01	8.015476e-01	-4.437450e-01	1.192195e+00	-2.107342e-08	0	9
	21	1	1	2	502	501	-1.240123e+00	-3.481939e+00	-2.555922e+00	4.493833e+00	-8.429370e-08	0	9
	21	1	1	2	504	505	5.012051e-01	-1.077046e+00	-6.497012e+00	6.604726e+00	1.192093e-07	0	9
	21	1	1	2	515	504	-1.094390e+00	-1.344726e+00	-4.298399e-01	1.786264e+00	-2.107342e-08	0	9
	21	1	1	2	508	509	1.969894e+00	1.770857e+00	-4.523865e+00	5.242306e+00	5.960464e-08	0	9
	21	1	1	2	511	508	1.386618e-01	-5.654144e-01	-8.586864e-01	1.037431e+00	-1.490116e-08	0	9
	21	1	1	2	503	502	-8.006604e-01	-8.762716e-02	-3.101514e+00	3.204391e+00	-5.960464e-08	0	9
	21	1	1	2	507	514	3.378394e+00	1.141602e+00	-3.713409e+00	5.148418e+00	1.192093e-07	0	9
</event>
<event>
	16 7000 1.000000e+00 5.654796e+01 7.3e-03 0.118
	21	-1	0	0	505	503	0.000000e+00	0.000000e+00	2.437178e+01	2.437178e+01	0.000000e+00	0	9
	21	-1	0	0	503	502	0.000000e+00	0.000000e+00	-3.280096e+01	3.280096e+01	0.000000e+00	0	9
	1	1	1	2	511	0	-4.311360e+00	3.363467e+00	-2.531796e+00	6.025841e+00	4.800000e-03	0	9
	-1	1	1	2	0	502	-5.201244e+00	1.047786e+00	1.908926e+00	5.638689e+00	4.800000e-03	0	9
	2	1	1	2	501	0	1.829703e+00	-1.691565e+00	-2.311572e+00	3.398908e+00	2.300000e-03	0	9
	-2	1	1	2	0	510	5.725743e-01	2.664654e+00	-3.559833e-02	2.725710e+00	2.300000e-03	0	9
	3	1	1	2	512	0	1.033048e+00	3.587400e+00	-4.723871e+00	6.021678e+00	9.500000e-02	0	9
	-3	1	1	2	0	507	2.033830e+00	-6.202941e-01	-8.762428e-01	2.301750e+00	9.500000e-02	0	9
	4	1	1	2	510	0	-1.284536e-01	3.041147e+00	3.597362e-01	3.319655e+00	1.275000e+00	0	9
	-4	1	1	2	0	508	-1.056498e+00	-2.015719e+00	-5.408146e+00	6.004413e+00	1.275000e+00	0	9
	21	1	1	2	507	501	7.832185e-01	-8.455376e-01	-3.364688e-01	1.200657e+00	-2.980232e-08	0	9
	21	1	1	2	509	504	2.881063e+00	-5.834375e+00	9.413400e+00	1.144345e+01	-2.384186e-07	0	9
	21	1	1	2	506	511	3.181063e+00	-2.457899e+00	-3.543899e+00	5.359072e+00	-1.032383e-07	0	9
	21	1	1	2	505	512	-4.971799e-01	1.048812e+00	3.166315e-01	1.203100e+00	-2.580957e-08	0	9
	21	1	1	2	504	509	-1.284416e+00	-1.608264e+00	-4.310913e-01	2.102873e+00	-5.161914e-08	0	9
	21	1	1	2	508	506	1.646524e-01	3.203889e-01	-2.291829e-01	4.269476e-01	-1.053671e-08	0	9
</event>
<event>
	19 7000 1.000000e+00 5.657133e+01 7.3e-03 0.118
	21	-1	0	0	501	510	0.000000e+00	0.000000e+00	2.575267e+02	2.575267e+02	0.000000e+00	0	9
	21	-1	0	0	515	509	0.000000e+00	0.000000e+00	-3.106780e+00	3.106780e+00	0.000000e+00	0	9
	1	1	1	2	512	0	-3.248638e-02	-1.798561e+00	3.086075e+00	3.572080e+00	4.800000e-03	0	9
	-1	1	1	2	0	510	1.816002e+00	-4.935866e+00	7.252462e+01	7.271507e+01	4.800000e-03	0	9
	2	1	1	2	515	0	-6.001477e-01	-3.521829e-02	3.254253e+01	3.254808e+01	2.300000e-03	0	9
	-2	1	1	2	0	505	-3.157201e+00	5.464832e-01	1.606292e+01	1.637938e+01	2.300000e-03	0	9
	3	1	1	2	503	0	-1.255385e+00	-2.004893e+00	2.968494e+00	3.796915e+00	9.500000e-02	0	9
	-3	1	1	2	0	514	-3.495126e+00	5.605600e+00	3.751447e+01	3.809177e+01	9.500000e-02	0	9
	4	1	1	2	506	0	-2.235992e+00	1.656123e+00	6.420426e+00	7.112657e+00	1.275000e+00	0	9
	-4	1	1	2	0	506	-1.597426e+00	1.228234e+00	5.795034e+00	6.266448e+00	1.275000e+00	0	9
	21	1	1	2	501	513	2.472767e+00	-2.457443e-01	1.327634e+01	1.350689e+01	1.685874e-07	0	9
	21	1	1	2	513	503	2.558261e+00	1.781275e+00	1.235418e+01	1.274140e+01	-1.685874e-07	0	9
	21	1	1	2	502	509	1.092592e+00	-2.476531e-01	8.679539e-01	1.417192e+00	-5.960464e-08	0	9
	21	1	1	2	507	508	-2.813792e+00	-2.720074e+00	1.345713e+01	1.401465e+01	2.384186e-07	0	9
	21	1	1	2	508	504	9.887724e-01	1.520920e-01	4.486043e+00	4.596236e+00	5.960464e-08	0	9
	21	1	1	2	514	502	1.751332e+00	-1.197892e-01	4.450810e+00	4.784477e+00	-5.960464e-08	0	9
	21	1	1	2	505	511	5.662976e-01	7.957044e-01	8.630459e+00	8.685543e+00	-1.685874e-07	0	9
	21	1	1	2	511	512	2.778351e+00	5.886250e-01	1.183766e+01	1.217358e+01	-1.685874e-07	0	9
	21	1	1	2	504	507	1.163181e+00	-2.463384e-01	8.144831e+00	8.231157e+00	0.000000e+00	0	9
</event>
<event>
	22 7000 1.000000e+00 6.970806e+01 7.3e-03 0.118
	21	-1	0	0	503	506	0.000000e+00	0.000000e+00	2.913921e+02	2.913921e+02	0.000000e+00	0	9
	21	-1	0	0	510	507	0.000000e+00	0.000000e+00	-4.168964e+00	4.168964e+00	0.000000e+00	0	9
	1	1	1	2	512	0	-3.852769e+00	1.596095e+00	1.968936e+01	2.012616e+01	4.800000e-03	0	9
	-1	1	1	2	0	504	-4.223705e-01	2.684175e-01	-7.494680e-01	9.012048e-01	4.800000e-03	0	9
	2	1	1	2	502	0	-2.817102e-01	5.076467e-01	9.891469e+00	9.908493e+00	2.300000e-03	0	9
	-2	1	1	2	0	508	-2.342203e+00	-3.879773e+00	2.509116e+01	2.549715e+01	2.300000e-03	0	9
	3	1	1	2	509	0	1.105221e+00	2.380270e+00	4.485756e+01	4.493436e+01	9.500000e-02	0	9
	-3	1	1	2	0	501	-2.680060e+00	-4.302479e+00	3.132439e+01	3.173201e+01	9.500000e-02	0	9
	4	1	1	2	501	0	1.626889e+00	1.417434e+00	4.304539e+00	4.981021e+00	1.275000e+00	0	9
	-4	1	1	2	0	516	1.541875e+00	1.803445e+00	3.423296e+01	3.433877e+01	1.275000e+00	0	9
	21	1	1	2	504	517	5.133264e-02	1.737104e-01	7.367975e+00	7.370201e+00	1.460010e-07	0	9
	21	1	1	2	511	506	5.809956e-01	-4.784886e-01	1.065008e+00	1.304127e+00	1.490116e-08	0	9
	21	1	1	2	510	502	4.544653e-01	-4.504773e-01	4.832773e+00	4.874953e+00	5.960464e-08	0	9
	21	1	1	2	517	514	-3.433037e-01	-3.780946e-02	4.652954e-01	5.794711e-01	-1.053671e-08	0	9
	21	1	1	2	503	511	1.928623e+00	6.928089e-01	3.246779e+01	3.253239e+01	4.768372e-07	0	9
	21	1	1	2	508	505	2.819484e-01	-3.473272e-01	-2.704128e-01	5.227372e-01	4.532011e-08	0	9
	21	1	1	2	516	513	1.299472e+00	-5.074749e+00	5.113748e+01	5.140509e+01	1.168008e-06	0	9
	21	1	1	2	505	507	7.586206e-01	2.489516e+00	7.739164e+00	8.165039e+00	0.000000e+00	0	9
	21	1	1	2	514	518	7.269513e-02	-3.459345e-01	8.126539e-01	8.862063e-01	2.356080e-08	0	9
	21	1	1	2	518	512	1.878624e+00	2.006274e+00	6.979032e+00	7.500750e+00	0.000000e+00	0	9
	21	1	1	2	513	515	5.803753e-01	-1.167851e+00	3.610464e-01	1.353169e+00	3.332001e-08	0	9
	21	1	1	2	515	509	-2.238720e+00	2.749271e+00	5.623359e+00	6.647746e+00	1.192093e-07	0	9
</event>
<event>
	15 7000 1.000000e+00 8.437159e+01 7.3e-03 0.118
	21	-1	0	0	509	502	0.000000e+00	0.000000e+00	3.832919e+02	3.832919e+02	0.000000e+00	0	9
	21	-1	0	0	503	511	0.000000e+00	0.000000e+00	-4.643044e+00	4.643044e+00	0.000000e+00	0	9
	1	1	1	2	506	0	-1.006354e+00	-4.065139e-01	2.736511e+00	2.943895e+00	4.800000e-03	0	9
	-1	1	1	2	0	507	1.111387e+00	-1.473293e+00	1.636940e+00	2.466854e+00	4.800000e-03	0	9
	2	1	1	2	510	0	-7.494717e-01	2.553861e-02	7.594711e+01	7.595081e+01	2.300000e-03	0	9
	-2	1	1	2	0	505	-1.227881e+00	-5.053292e+00	8.777398e+01	8.792790e+01	2.300000e-03	0	9
	3	1	1	2	505	0	5.228222e-01	-7.676387e-01	4.968214e+01	4.969091e+01	9.500000e-02	0	9
	-3	1	1	2	0	504	-1.779909e+00	-2.380927e+00	1.159059e+00	3.192074e+00	9.500000e-02	0	9
	4	1	1	2	507	0	-3.885915e+00	-1.253185e+00	1.024351e+01	1.110072e+01	1.275000e+00	0	9
	-4	1	1	2	0	511	-2.327003e-01	8.677578e+00	2.339466e+01	2.498580e+01	1.275000e+00	0	9
	21	1	1	2	501	508	-6.475524e-03	4.830245e-01	2.036583e+01	2.037155e+01	-4.768372e-07	0	9
	21	1	1	2	508	501	-3.757311e+00	-2.766524e+00	1.221202e+01	1.307305e+01	0.000000e+00	0	9
	21	1	1	2	509	506	7.795828e+00	-2.657203e+00	1.402039e+01	1.626059e+01	2.384186e-07	0	9
	21	1	1	2	504	502	1.172712e+00	6.352198e+00	5.471889e+01	5.509884e+01	-6.743496e-07	0	9
	21	1	1	2	503	510	2.043269e+00	1.220238e+00	2.475786e+01	2.487198e+01	-3.371748e-07	0	9
</event>
<event>
	16 7000 1.000000e+00 5.807792e+01 7.3e-03 0.118
	21	-1	0	0	503	512	0.000000e+00	0.000000e+00	1.173221e+01	1.173221e+01	0.000000e+00	0	9
	21	-1	0	0	504	510	0.000000e+00	0.000000e+00	-7.187572e+01	7.187572e+01	0.000000e+00	0	9
	1	1	1	2	511	0	2.554617e+00	8.724968e-01	-1.606906e+00	3.141574e+00	4.800000e-03	0	9
	-1	1	1	2	0	502	-3.757148e+00	-1.579967e+00	5.230942e-01	4.109271e+00	4.800000e-03	0	9
	2	1	1	2	502	0	-4.679433e+00	-4.586775e+00	-5.032461e+00	8.262038e+00	2.300000e-03	0	9
	-2	1	1	2	0	508	2.987277e+00	-1.175464e-01	-8.216069e+00	8.743079e+00	2.300000e-03	0	9
	3	1	1	2	501	0	-3.865091e+00	7.578394e+00	-8.765514e+00	1.221533e+01	9.500000e-02	0	9
	-3	1	1	2	0	505	4.061029e+00	-3.057967e+00	-9.535274e+00	1.080618e+01	9.500000e-02	0	9
	4	1	1	2	508	0	-4.761148e-01	-2.957818e-02	-1.342080e+00	1.911639e+00	1.275000e+00	0	9
	-4	1	1	2	0	506	-8.472069e-01	4.716130e-01	-7.840400e+00	8.002354e+00	1.275000e+00	0	9
	21	1	1	2	507	512	1.897358e+00	2.250118e-01	-1.268357e+00	2.293322e+00	4.214685e-08	0	9
	21	1	1	2	503	510	6.245442e-01	1.337607e+00	8.368565e-01	1.696932e+00	-6.989264e-08	0	9
	21	1	1	2	505	511	-2.689527e+00	2.875790e+00	-4.312048e+00	5.839305e+00	-8.429370e-08	0	9
	21	1	1	2	506	509	2.179249e+00	-9.288882e-02	-4.585382e+00	5.077744e+00	8.429370e-08	0	9
	21	1	1	2	504	501	1.830294e+00	9.936961e-01	-1.547296e+00	2.594519e+00	-2.980232e-08	0	9
	21	1	1	2	509	507	1.801526e-01	-4.889885e+00	-7.451674e+00	8.914644e+00	-1.192093e-07	0	9
</event>
<event>
	17 7000 1.000000e+00 9.432668e+01 7.3e-03 0.118
	21	-1	0	0	507	504	0.000000e+00	0.000000e+00	1.141262e+01	1.141262e+01	0.000000e+00	0	9
	21	-1	0	0	506	501	0.000000e+00	0.000000e+00	-1.949053e+02	1.949053e+02	0.000000e+00	0	9
	1	1	1	2	509	0	-6.170638e+00	1.018717e+01	-2.938355e+01	3.170565e+01	4.800000e-03	0	9
	-1	1	1	2	0	503	-1.457631e+00	-5.514404e+00	-5.989667e+00	8.271002e+00	4.800000e-03	0	9
	2	1	1	2	508	0	3.460217e+00	-7.065788e+00	-1.472107e+01	1.669156e+01	2.300000e-03	0	9
	-2	1	1	2	0	505	4.523750e+00	-6.190387e-01	-1.871660e+01	1.926548e+01	2.300000e-03	0	9
	3	1	1	2	503	0	-1.123563e+01	8.570208e+00	-3.470409e+01	3.747093e+01	9.500000e-02	0	9
	-3	1	1	2	0	508	1.294078e-01	-3.598385e-01	4.030207e-01	5.636318e-01	9.500000e-02	0	9
	4	1	1	2	512	0	-2.004981e+00	7.542114e-01	-1.032241e+01	1.061916e+01	1.275000e+00	0	9
	-4	1	1	2	0	513	7.194235e+00	7.234384e+00	-2.878702e+01	3.056815e+01	1.275000e+00	0	9
	21	1	1	2	505	501	7.103870e-01	-3.688265e+00	-7.438091e+00	8.332656e+00	0.000000e+00	0	9
	21	1	1	2	507	504	1.693607e+00	1.130363e+00	-3.380062e+00	3.945991e+00	5.960464e-08	0	9
	21	1	1	2	506	511	3.880058e-01	-3.887910e+00	-1.821852e+00	4.311095e+00	-8.429370e-08	0	9
	21	1	1	2	511	510	-1.563059e+00	3.278536e-01	-1.585993e+00	2.250781e+00	-2.980232e-08	0	9
	21	1	1	2	513	512	5.197374e-01	-9.961512e+00	-2.036961e+01	2.268089e+01	0.000000e+00	0	9
	21	1	1	2	510	502	2.253770e+00	1.119033e+00	-6.825952e+00	7.274980e+00	0.000000e+00	0	9
	21	1	1	2	502	509	1.558819e+00	1.773535e+00	1.502405e-01	2.365992e+00	4.214685e-08	0	9
</event>
<event>
	20 7000 1.000000e+00 5.373189e+01 7.3e-03 0.118
	21	-1	0	0	509	515	0.000000e+00	0.000000e+00	3.343846e-01	3.343846e-01	0.000000e+00	0	9
	21	-1	0	0	513	516	0.000000e+00	0.000000e+00	-2.158530e+03	2.158530e+03	0.000000e+00	0	9
	1	1	1	2	508	0	3.650126e-01	2.942691e-01	-1.110423e+01	1.111413e+01	4.800000e-03	0	9
	-1	1	1	2	0	501	-2.832621e+00	-1.896015e+00	-2.767487e+02	2.767697e+02	4.799999e-03	0	9
	2	1	1	2	504	0	2.766954e+00	4.877529e+00	-2.110022e+02	2.110767e+02	2.299998e-03	0	9
	-2	1	1	2	0	502	-5.603555e-01	-1.997396e+00	-7.934889e+01	7.937600e+01	2.300000e-03	0	9
	3	1	1	2	512	0	-3.242311e+00	-2.009696e+00	-1.709572e+02	1.709998e+02	9.500000e-02	0	9
	-3	1	1	2	0	504	1.370875e+00	-9.392155e-02	-1.471322e+02	1.471386e+02	9.500000e-02	0	9
	4	1	1	2	506	0	-1.436886e-02	1.990515e-02	-9.569730e+01	9.570579e+01	1.275000e+00	0	9
	-4	1	1	2	0	512	-7.849297e-01	7.861542e-01	-4.075032e+01	4.078540e+01	1.275000e+00	0	9
	21	1	1	2	509	515	3.191067e+00	7.803407e-01	-2.417975e+02	2.418198e+02	2.697398e-06	0	9
	21	1	1	2	502	510	-1.023636e-01	4.413608e-02	-2.100015e+00	2.102971e+00	-5.960464e-08	0	9
	21	1	1	2	513	516	-2.094122e+00	2.199220e+00	-1.029392e+02	1.029840e+02	0.000000e+00	0	9
	21	1	1	2	505	514	2.232572e+00	-1.234718e+00	-6.111636e+01	6.116959e+01	-1.168008e-06	0	9
	21	1	1	2	514	506	4.314942e-01	-5.755561e-01	-2.796294e+01	2.797219e+01	-5.840039e-07	0	9
	21	1	1	2	510	508	-1.896630e+00	-3.408342e+00	-1.476187e+02	1.476702e+02	-3.303625e-06	0	9
	21	1	1	2	501	503	-1.757433e+00	-1.636208e+00	-1.545946e+02	1.546133e+02	-3.303625e-06	0	9
	21	1	1	2	503	505	5.399442e+00	5.887818e+00	-1.962207e+02	1.963832e+02	-4.672031e-06	0	9
	21	1	1	2	511	507	1.055926e+00	2.083532e-01	-2.157544e+01	2.160226e+01	0.000000e+00	0	9
	21	1	1	2	507	511	-3.528206e+00	-2.245873e+00	-1.695286e+02	1.695802e+02	1.907349e-06	0	9
</event>
<event>
	13 7000 1.000000e+00 5.884030e+01 7.3e-03 0.118
	21	-1	0	0	506	501	0.000000e+00	0.000000e+00	1.887325e+01	1.887325e+01	0.000000e+00	0	9
	21	-1	0	0	505	502	0.000000e+00	0.000000e+00	-4.586095e+01	4.586095e+01	0.000000e+00	0	9
	1	1	1	2	508	0	-2.195594e+00	-9.890427e+00	-7.843236e+00	1.281240e+01	4.800000e-03	0	9
	-1	1	1	2	0	509	5.788373e-01	-4.057609e-01	-5.990639e-01	9.266041e-01	4.800000e-03	0	9
	2	1	1	2	509	0	1.889141e+00	-1.079596e+00	-2.614981e+00	3.401840e+00	2.300000e-03	0	9
	-2	1	1	2	0	504	-3.904503e+00	9.780889e-01	-4.149566e+00	5.781065e+00	2.300000e-03	0	9
	3	1	1	2	505	0	-4.588181e-01	-5.807886e-01	-2.199731e+00	2.322858e+00	9.500000e-02	0	9
	-3	1	1	2	0	508	3.568323e-03	2.329846e+00	2.278320e+00	3.260055e+00	9.500000e-02	0	9
	4	1	1	2	507	0	-4.009122e+00	2.057042e+00	-7.169211e+00	8.563159e+00	1.275000e+00	0	9
	-4	1	1	2	0	503	5.289906e+00	1.504797e+01	-3.815621e+00	1.645020e+01	1.275000e+00	0	9
	21	1	1	2	504	502	-2.525484e-01	-5.477876e+00	1.591190e-01	5.486003e+00	-1.332800e-07	0	9
	21	1	1	2	503	507	2.501146e+00	-3.851748e+00	-9.544085e-01	4.690692e+00	5.960464e-08	0	9
	21	1	1	2	506	501	5.579866e-01	8.732557e-01	-7.931926e-02	1.039334e+00	0.000000e+00	0	9
</event>
<event>
	14 7000 1.000000e+00 5.073697e+01 7.3e-03 0.118
	21	-1	0	0	507	510	0.000000e+00	0.000000e+00	2.186741e+02	2.186741e+02	0.000000e+00	0	9
	21	-1	0	0	505	507	0.000000e+00	0.000000e+00	-2.943010e+00	2.943010e+00	0.000000e+00	0	9
	1	1	1	2	503	0	-2.286595e+00	-1.237993e+00	1.039347e+01	1.071379e+01	4.800000e-03	0	9
	-1	1	1	2	0	504	2.800227e+00	2.084452e+00	2.398239e+01	2.423512e+01	4.800000e-03	0	9
	2	1	1	2	508	0	-4.114540e+00	4.799885e+00	1.104911e+01	1.272993e+01	2.300000e-03	0	9
	-2	1	1	2	0	510	2.588525e+00	4.531497e-01	8.658932e+00	9.048918e+00	2.300000e-03	0	9
	3	1	1	2	504	0	4.675938e-02	2.281445e-01	1.392494e+00	1.415027e+00	9.500000e-02	0	9
	-3	1	1	2	0	506	7.650003e-01	4.307552e-01	1.839588e+01	1.841706e+01	9.500000e-02	0	9
	4	1	1	2	501	0	1.603024e+00	-1.986370e+00	8.405987e+00	8.877027e+00	1.275000e+00	0	9
	-4	1	1	2	0	503	-5.228473e-01	-1.613442e+00	3.424048e+01	3.430616e+01	1.275000e+00	0	9
	21	1	1	2	509	502	-2.313570e+00	-5.242959e+00	3.677375e+01	3.721760e+01	6.743496e-07	0	9
	21	1	1	2	502	501	3.318062e+00	6.866851e-01	8.733307e+00	9.367589e+00	1.685874e-07	0	9
	21	1	1	2	505	508	-2.694068e+00	-2.206830e-01	1.577607e+00	3.129783e+00	1.576991e-07	0	9
	21	1	1	2	506	509	8.100228e-01	1.618375e+00	5.212771e+01	5.215912e+01	6.743496e-07	0	9
</event>
<event>
	16 7000 1.000000e+00 5.167982e+01 7.3e-03 0.118
	21	-1	0	0	508	511	0.000000e+00	0.000000e+00	6.727896e+00	6.727896e+00	0.000000e+00	0	9
	21	-1	0	0	512	505	0.000000e+00	0.000000e+00	-9.924364e+01	9.924364e+01	0.000000e+00	0	9
	1	1	1	2	506	0	-1.458396e+00	-1.991994e+00	-1.781294e+00	3.044338e+00	4.800000e-03	0	9
	-1	1	1	2	0	511	-7.002266e-01	-1.961676e+00	-2.555830e+00	3.297086e+00	4.800000e-03	0	9
	2	1	1	2	507	0	-2.114716e+00	-7.605037e-01	-3.586641e+00	4.232539e+00	2.300000e-03	0	9
	-2	1	1	2	0	501	-7.200678e-02	-3.750123e-01	-6.046790e+00	6.058836e+00	2.300000e-03	0	9
	3	1	1	2	510	0	6.274073e-01	-3.218561e-01	-1.217683e-01	7.218613e-01	9.500000e-02	0	9
	-3	1	1	2	0	504	-6.045931e-01	2.120995e+00	-7.813169e+00	8.119038e+00	9.500000e-02	0	9
	4	1	1	2	504	0	-4.175480e-01	-1.755883e+00	-3.949211e-01	2.244785e+00	1.275000e+00	0	9
	-4	1	1	2	0	510	-6.011405e-01	5.606095e+00	-2.183145e+01	2.258379e+01	1.275000e+00	0	9
	21	1	1	2	512	502	-2.495256e-02	-1.075136e-01	-5.406765e+00	5.407892e+00	-5.960464e-08	0	9
	21	1	1	2	501	505	-2.845932e+00	-3.993715e+00	-3.143872e+00	5.825206e+00	-1.192093e-07	0	9
	21	1	1	2	503	507	5.157297e+00	-3.093948e-01	-1.455842e+01	1.544801e+01	1.685874e-07	0	9
	21	1	1	2	508	509	-4.532777e+00	4.334200e+00	-9.372221e+00	1.127696e+01	1.192093e-07	0	9
	21	1	1	2	502	503	2.963695e+00	-7.831325e-01	-5.000952e+00	5.865689e+00	0.000000e+00	0	9
	21	1	1	2	509	506	4.623890e+00	2.993909e-01	-1.090165e+01	1.184550e+01	1.685874e-07	0	9
</event>
<event>
	19 7000 1.000000e+00 7.767126e+01 7.3e-03 0.118
	21	-1	0	0	507	502	0.000000e+00	0.000000e+00	5.451123e-01	5.451123e-01	0.000000e+00	0	9
	21	-1	0	0	501	514	0.000000e+00	0.000000e+00	-2.766781e+03	2.766781e+03	0.000000e+00	0	9
	1	1	1	2	511	0	5.510269e+00	-2.136376e+00	-1.826244e+02	1.827200e+02	4.800000e-03	0	9
	-1	1	1	2	0	515	-2.049658e+00	-5.727498e+00	-1.564714e+02	1.565896e+02	4.800000e-03	0	9
	2	1	1	2	507	0	8.152153e-01	1.762065e-01	-5.919821e+02	5.919826e+02	2.299981e-03	0	9
	-2	1	1	2	0	508	-2.691559e-01	9.920954e-01	-2.692056e+01	2.694018e+01	2.300000e-03	0	9
	3	1	1	2	504	0	-3.868354e+00	1.915915e+00	-1.632313e+02	1.632884e+02	9.500000e-02	0	9
	-3	1	1	2	0	512	-1.245240e+00	-6.074870e+00	-1.727209e+02	1.728322e+02	9.500000e-02	0	9
	4	1	1	2	505	0	-6.255086e-01	2.559263e-01	-2.772332e+01	2.776085e+01	1.275000e+00	0	9
	-4	1	1	2	0	514	-2.909240e+00	5.288242e-01	-4.288396e+02	4.288517e+02	1.275000e+00	0	9
	21	1	1	2	513	510	2.041419e+00	-5.778567e-01	-5.977974e+01	5.981738e+01	9.536743e-07	0	9
	21	1	1	2	510	505	-1.372123e+00	1.540855e+00	-1.929187e+01	1.940188e+01	-9.233912e-07	0	9
	21	1	1	2	501	504	4.111055e+00	5.650252e+00	-3.769061e+02	3.769708e+02	7.629395e-06	0	9
	21	1	1	2	506	511	-1.766450e+00	4.710266e+00	-2.298844e+02	2.299394e+02	0.000000e+00	0	9
	21	1	1	2	503	502	1.851853e+00	1.843266e+00	-5.225326e+01	5.231855e+01	-6.743496e-07	0	9
	21	1	1	2	508	503	-4.929955e+00	-2.800444e+00	-8.028935e+01	8.048930e+01	0.000000e+00	0	9
	21	1	1	2	515	509	4.144018e+00	2.217727e-01	-9.314903e+01	9.324143e+01	-1.907349e-06	0	9
	21	1	1	2	512	506	-3.056179e-01	1.645790e-01	-5.324211e+01	5.324324e+01	6.743496e-07	0	9
	21	1	1	2	509	513	8.674735e-01	-6.829136e-01	-5.092639e+01	5.093836e+01	-6.743496e-07	0	9
</event>
<event>
	22 7000 1.000000e+00 5.346190e+01 7.3e-03 0.118
	21	-1	0	0	518	510	0.000000e+00	0.000000e+00	5.881157e+02	5.881157e+02	0.000000e+00	0	9
	21	-1	0	0	509	504	0.000000e+00	0.000000e+00	-1.214971e+00	1.214971e+00	0.000000e+00	0	9
	1	1	1	2	502	0	2.708003e+00	5.268401e-01	2.994468e+01	3.007149e+01	4.800000e-03	0	9
	-1	1	1	2	0	506	4.221994e-01	7.495836e-01	7.819795e+00	7.866978e+00	4.800000e-03	0	9
	2	1	1	2	507	0	3.534606e-01	3.195575e-01	1.529479e+00	1.601987e+00	2.300000e-03	0	9
	-2	1	1	2	0	515	2.438662e-02	-1.431809e+00	2.708575e+01	2.712358e+01	2.300000e-03	0	9
	3	1	1	2	506	0	4.430392e-01	-6.807743e-01	2.168999e+01	2.170540e+01	9.500000e-02	0	9
	-3	1	1	2	0	507	-8.722915e+00	1.212541e+00	7.845565e+01	7.894845e+01	9.500000e-02	0	9
	4	1	1	2	508	0	7.442599e-01	8.660787e-01	7.882039e+01	7.883897e+01	1.275000e+00	0	9
	-4	1	1	2	0	508	5.042503e+00	5.313487e-01	5.840563e+01	5.863917e+01	1.275000e+00	0	9
	21	1	1	2	517	516	-3.037591e-01	-1.143334e+00	1.417257e+01	1.422185e+01	2.384186e-07	0	9
	21	1	1	2	503	514	9.441508e-01	-4.761529e-01	3.581289e+00	3.734136e+00	1.519626e-07	0	9
	21	1	1	2	501	512	-5.981522e-01	5.988103e-01	5.403196e+00	5.469084e+00	8.429370e-08	0	9
	21	1	1	2	505	511	-6.808606e-01	-1.810692e+00	1.240510e+01	1.255503e+01	1.685874e-07	0	9
	21	1	1	2	516	513	-2.463387e+00	-9.056738e-01	1.417238e+01	1.441336e+01	2.920019e-07	0	9
	21	1	1	2	509	510	-2.677317e-01	-1.830955e+00	1.104087e+01	1.119486e+01	2.665601e-07	0	9
	21	1	1	2	512	502	1.160752e-01	-3.628353e-01	7.899390e+00	7.908571e+00	1.192093e-07	0	9
	21	1	1	2	513	505	-1.812146e+00	-5.104417e-01	2.232293e+01	2.240218e+01	3.371748e-07	0	9
	21	1	1	2	515	501	-6.302133e-01	1.297074e-01	2.097365e+01	2.098352e+01	0.000000e+00	0	9
	21	1	1	2	511	504	3.155170e+00	-1.842517e+00	8.006836e+01	8.015168e+01	-9.536743e-07	0	9
	21	1	1	2	514	503	1.399427e+00	3.924172e+00	8.326033e+01	8.336450e+01	9.536743e-07	0	9
	21	1	1	2	518	517	1.264903e-01	2.136546e+00	7.849262e+00	8.135830e+00	3.153981e-07	0	9
</event>
<event>
	19 7000 1.000000e+00 5.406970e+01 7.3e-03 0.118
	21	-1	0	0	515	505	0.000000e+00	0.000000e+00	7.945812e+02	7.945812e+02	0.000000e+00	0	9
	21	-1	0	0	512	511	0.000000e+00	0.000000e+00	-9.198346e-01	9.198346e-01	0.000000e+00	0	9
	1	1	1	2	508	0	8.571879e-01	-1.865797e-01	7.008757e+01	7.009306e+01	4.800000e-03	0	9
	-1	1	1	2	0	504	7.104373e-02	8.429426e-01	4.176532e+01	4.177389e+01	4.800000e-03	0	9
	2	1	1	2	501	0	3.644474e-01	-1.157496e+00	2.123732e+01	2.127196e+01	2.300000e-03	0	9
	-2	1	1	2	0	501	-3.028932e-01	-2.799192e+00	2.938890e+01	2.952346e+01	2.300000e-03	0	9
	3	1	1	2	507	0	6.288179e+00	1.910416e-01	9.557944e+01	9.578631e+01	9.500000e-02	0	9
	-3	1	1	2	0	513	-5.950300e-01	-3.367304e-01	6.527857e+00	6.564251e+00	9.500000e-02	0	9
	4	1	1	2	515	0	-1.193060e-01	5.810331e-01	6.135889e+01	6.137500e+01	1.275000e+00	0	9
	-4	1	1	2	0	514	-1.885739e+00	5.481505e-01	1.494744e+01	1.512971e+01	1.275000e+00	0	9
	21	1	1	2	504	510	-6.895353e-01	5.115469e-01	4.144922e+00	4.232909e+00	-1.032383e-07	0	9
	21	1	1	2	512	511	-2.421083e+00	2.458187e+00	2.562690e+01	2.585812e+01	-3.371748e-07	0	9
	21	1	1	2	509	503	-3.583477e-01	-1.718976e-01	2.996311e+01	2.996574e+01	-4.768372e-07	0	9
	21	1	1	2	506	505	7.284329e-02	-6.569377e-01	4.821601e+00	4.866694e+00	-5.960464e-08	0	9
	21	1	1	2	510	506	3.567256e-01	1.404499e+00	2.038928e+01	2.044071e+01	0.000000e+00	0	9
	21	1	1	2	513	502	-6.032853e+00	-7.243889e+00	8.627006e+01	8.678359e+01	-1.348699e-06	0	9
	21	1	1	2	502	508	3.261677e+00	-1.263401e-01	1.438712e+02	1.439082e+02	-1.907349e-06	0	9
	21	1	1	2	514	507	1.976261e+00	-5.487480e-02	3.224526e+01	3.230581e+01	-6.743496e-07	0	9
	21	1	1	2	503	509	-8.435783e-01	6.196537e+00	1.054363e+02	1.056216e+02	0.000000e+00	0	9
</event>
<event>
	18 7000 1.000000e+00 5.250504e+01 7.3e-03 0.118
	21	-1	0	0	506	514	0.000000e+00	0.000000e+00	2.659768e+02	2.659768e+02	0.000000e+00	0	9
	21	-1	0	0	513	504	0.000000e+00	0.000000e+00	-2.591184e+00	2.591184e+00	0.000000e+00	0	9
	1	1	1	2	508	0	1.880165e+00	-2.394769e+00	7.188547e+00	7.806739e+00	4.800000e-03	0	9
	-1	1	1	2	0	514	3.432081e+00	-1.762492e+00	1.698467e+01	1.741737e+01	4.800000e-03	0	9
	2	1	1	2	512	0	2.920579e-01	1.094510e+00	1.322504e+01	1.327347e+01	2.300000e-03	0	9
	-2	1	1	2	0	507	-3.200300e+00	7.209753e-01	7.432232e+00	8.124026e+00	2.300000e-03	0	9
	3	1	1	2	501	0	2.030456e-01	1.570630e-01	-2.408976e-01	3.646272e-01	9.500000e-02	0	9
	-3	1	1	2	0	508	-6.684087e-01	4.880292e-01	1.511786e+00	1.726113e+00	9.500000e-02	0	9
	4	1	1	2	513	0	-8.431718e-01	-2.543316e+00	4.151670e+01	4.162261e+01	1.275000e+00	0	9
	-4	1	1	2	0	502	-1.877033e+00	1.772978e+00	6.849694e+00	7.430386e+00	1.275000e+00	0	9
	21	1	1	2	502	505	9.462163e-01	-4.058792e-01	2.472645e+00	2.678440e+00	0.000000e+00	0	9
	21	1	1	2	509	503	8.782460e-01	-7.932917e-01	2.713013e+01	2.715593e+01	3.371748e-07	0	9
	21	1	1	2	510	512	-2.780173e+00	9.687906e-01	9.876800e+00	1.030626e+01	1.685874e-07	0	9
	21	1	1	2	503	511	-2.266602e+00	-1.091055e+00	8.465540e+00	8.831378e+00	1.192093e-07	0	9
	21	1	1	2	511	501	2.025831e+00	2.159092e+00	1.896049e+01	1.919026e+01	-3.371748e-07	0	9
	21	1	1	2	507	504	3.354653e+00	3.473949e+00	9.378967e+01	9.391392e+01	-1.348699e-06	0	9
	21	1	1	2	506	509	-1.898358e-01	-5.925557e-01	5.271969e+00	5.308560e+00	5.960464e-08	0	9
	21	1	1	2	505	510	-1.186772e+00	-1.252029e+00	2.950565e+00	3.417871e+00	-9.424322e-08	0	9
</event>
<event>
	16 7000 1.000000e+00 5.569871e+01 7.3e-03 0.118
	21	-1	0	0	511	505	0.000000e+00	0.000000e+00	4.423623e+02	4.423623e+02	0.000000e+00	0	9
	21	-1	0	0	502	511	0.000000e+00	0.000000e+00	-1.753283e+00	1.753283e+00	0.000000e+00	0	9
	1	1	1	2	510	0	5.586207e+00	-1.183217e+00	2.166406e+01	2.240396e+01	4.800000e-03	0	9
	-1	1	1	2	0	504	-5.909018e+00	-7.678855e+00	9.049573e+01	9.101296e+01	4.800000e-03	0	9
	2	1	1	2	502	0	-2.120353e-02	-9.292741e-01	9.796969e+00	9.840966e+00	2.300000e-03	0	9
	-2	1	1	2	0	509	-2.173999e+00	3.477252e-01	1.654117e+01	1.668704e+01	2.300000e-03	0	9
	3	1	1	2	508	0	2.206677e-01	3.647426e-01	3.363148e+01	3.363431e+01	9.500000e-02	0	9
	-3	1	1	2	0	503	-5.295740e+00	8.186740e-01	1.797524e+01	1.875723e+01	9.500000e-02	0	9
	4	1	1	2	507	0	1.200813e+00	-1.390377e+00	1.402267e+01	1.419986e+01	1.275000e+00	0	9
	-4	1	1	2	0	505	4.613964e+00	2.273971e+00	5.836053e+01	5.860065e+01	1.275000e+00	0	9
	21	1	1	2	506	501	-1.487980e+00	-1.417174e+00	1.251418e+01	1.268176e+01	-1.685874e-07	0	9
	21	1	1	2	504	508	1.885175e+00	6.821148e-01	4.623639e+01	4.627984e+01	-6.743496e-07	0	9
	21	1	1	2	512	507	-6.274799e-01	2.377327e+00	4.595427e+01	4.602000e+01	0.000000e+00	0	9
	21	1	1	2	501	506	-9.836734e-01	2.149527e+00	7.690997e+00	8.046087e+00	0.000000e+00	0	9
	21	1	1	2	509	510	1.407534e+00	1.049982e-01	2.711766e+01	2.715437e+01	-3.371748e-07	0	9
	21	1	1	2	503	512	1.584732e+00	3.479817e+00	3.860771e+01	3.879660e+01	4.768372e-07	0	9
</event>
<event>
	15 7000 1.000000e+00 5.378217e+01 7.3e-03 0.118
	21	-1	0	0	509	507	0.000000e+00	0.000000e+00	2.548540e-01	2.548540e-01	0.000000e+00	0	9
	21	-1	0	0	508	509	0.000000e+00	0.000000e+00	-2.837430e+03	2.837430e+03	0.000000e+00	0	9
	1	1	1	2	506	0	3.715423e+00	-1.240032e+00	-1.624454e+02	1.624926e+02	4.800001e-03	0	9
	-1	1	1	2	0	507	-2.329606e+00	-1.133231e+00	-4.290736e+01	4.298550e+01	4.800000e-03	0	9
	2	1	1	2	511	0	1.395998e+00	-1.233680e-01	-1.078336e+02	1.078427e+02	2.300000e-03	0	9
	-2	1	1	2	0	506	-1.460357e+00	2.890671e+00	-2.539269e+02	2.539475e+02	2.300001e-03	0	9
	3	1	1	2	510	0	1.128723e+00	-4.405579e+00	-3.807092e+02	3.807364e+02	9.500000e-02	0	9
	-3	1	1	2	0	504	-2.702822e+00	6.879851e+00	-2.924501e+02	2.925435e+02	9.500000e-02	0	9
	4	1	1	2	503	0	-1.677971e+00	-1.056925e+00	-8.441852e+01	8.445144e+01	1.275000e+00	0	9
	-4	1	1	2	0	505	5.953186e+00	-2.763979e+00	-1.855852e+02	1.857056e+02	1.275000e+00	0	9
	21	1	1	2	501	502	-2.628608e+00	-2.065818e+00	-4.301186e+02	4.301316e+02	0.000000e+00	0	9
	21	1	1	2	505	503	-4.622791e-01	3.357554e+00	-1.433862e+02	1.434263e+02	0.000000e+00	0	9
	21	1	1	2	504	510	-1.505443e-02	-1.228014e+00	-6.165660e+02	6.165673e+02	-1.078959e-05	0	9
	21	1	1	2	508	501	2.665042e-01	1.373728e+00	-6.525001e+01	6.526501e+01	-9.536743e-07	0	9
	21	1	1	2	502	511	-1.183136e+00	-4.848591e-01	-7.157826e+01	7.158968e+01	1.348699e-06	0	9
</event>
<event>
	16 7000 1.000000e+00 5.737970e+01 7.3e-03 0.118
	21	-1	0	0	509	510	0.000000e+00	0.000000e+00	2.013236e-01	2.013236e-01	0.000000e+00	0	9
	21	-1	0	0	504	509	0.000000e+00	0.000000e+00	-4.088479e+03	4.088479e+03	0.000000e+00	0	9
	1	1	1	2	503	0	2.006765e+00	1.176525e+00	-1.370634e+02	1.370832e+02	4.800000e-03	0	9
	-1	1	1	2	0	512	-5.119028e-01	-1.419206e+00	-5.110886e+01	5.113113e+01	4.800000e-03	0	9
	2	1	1	2	505	0	4.315499e+00	-5.453586e-01	-1.196518e+02	1.197308e+02	2.300002e-03	0	9
	-2	1	1	2	0	503	2.355195e+00	-4.028644e-01	-5.418998e+02	5.419050e+02	2.299981e-03	0	9
	3	1	1	2	501	0	-2.741813e-01	3.009891e+00	-1.864496e+02	1.864741e+02	9.500000e-02	0	9
	-3	1	1	2	0	501	-2.712282e+00	2.952531e+00	-3.386670e+02	3.386907e+02	9.500000e-02	0	9
	4	1	1	2	511	0	3.821679e-01	4.473524e+00	-3.415934e+02	3.416253e+02	1.275000e+00	0	9
	-4	1	1	2	0	505	1.877834e-01	-2.848751e+00	-2.838786e+02	2.838959e+02	1.275000e+00	0	9
	21	1	1	2	504	506	-2.425513e+00	2.399479e+00	-1.026991e+02	1.027558e+02	-1.907349e-06	0	9
	21	1	1	2	502	511	-3.203723e+00	9.004243e-02	-2.727428e+02	2.727616e+02	5.394797e-06	0	9
	21	1	1	2	506	507	-2.105617e+00	7.794062e-01	-1.650273e+02	1.650426e+02	0.000000e+00	0	9
	21	1	1	2	512	502	-1.802624e+00	-8.417229e-01	-6.111601e+02	6.111634e+02	7.629395e-06	0	9
	21	1	1	2	508	510	3.691733e+00	-5.206420e-01	-1.750966e+02	1.751363e+02	-1.907349e-06	0	9
	21	1	1	2	507	508	9.669997e-02	-8.302853e+00	-7.612393e+02	7.612845e+02	0.000000e+00	0	9
</event>
<event>
	17 7000 1.000000e+00 6.441702e+01 7.3e-03 0.118
	21	-1	0	0	508	505	0.000000e+00	0.000000e+00	5.921120e+02	5.921120e+02	0.000000e+00	0	9
	21	-1	0	0	501	513	0.000000e+00	0.000000e+00	-1.752013e+00	1.752013e+00	0.000000e+00	0	9
	1	1	1	2	508	0	2.033807e+00	-2.588630e+00	5.380720e+01	5.390782e+01	4.800000e-03	0	9
	-1	1	1	2	0	502	7.959046e+00	-7.291799e-01	1.932982e+02	1.934634e+02	4.799998e-03	0	9
	2	1	1	2	504	0	-8.221085e-01	3.009479e-02	2.483946e+00	2.616631e+00	2.300000e-03	0	9
	-2	1	1	2	0	506	1.123828e-01	-1.892000e-01	1.147520e+00	1.168432e+00	2.300000e-03	0	9
	3	1	1	2	512	0	1.806719e+00	2.707183e+00	3.251077e+01	3.267342e+01	9.500000e-02	0	9
	-3	1	1	2	0	503	-3.129879e+00	2.499883e-01	5.125767e+01	5.135383e+01	9.500000e-02	0	9
	4	1	1	2	506	0	-1.505484e+00	-4.630269e-01	8.659705e+01	8.662076e+01	1.275000e+00	0	9
	-4	1	1	2	0	513	-1.306042e+00	7.238073e-01	9.802209e+00	9.996928e+00	1.275000e+00	0	9
	21	1	1	2	503	510	-6.845404e-01	-7.751948e-01	8.759316e+01	8.759927e+01	-1.348699e-06	0	9
	21	1	1	2	510	511	-3.849069e+00	2.964229e+00	2.372645e+01	2.421872e+01	4.768372e-07	0	9
	21	1	1	2	501	512	1.630891e+00	2.738462e+00	2.480767e+01	2.501159e+01	0.000000e+00	0	9
	21	1	1	2	502	507	-1.247032e+00	-5.275818e+00	1.165073e+01	1.285024e+01	4.460403e-07	0	9
	21	1	1	2	509	504	3.561980e-01	-2.539653e-01	2.800121e+00	2.834087e+00	4.214685e-08	0	9
	21	1	1	2	511	509	-3.988109e-01	-1.241866e-01	-1.301032e-01	4.374921e-01	-2.885597e-08	0	9
	21	1	1	2	507	505	-9.560789e-01	9.854361e-01	9.007414e+00	9.111459e+00	0.000000e+00	0	9
</event>
<event>
	17 7000 1.000000e+00 5.099292e+01 7.3e-03 0.118
	21	-1	0	0	502	510	0.000000e+00	0.000000e+00	1.358361e+00	1.358361e+00	0.000000e+00	0	9
	21	-1	0	0	509	502	0.000000e+00	0.000000e+00	-4.785692e+02	4.785692e+02	0.000000e+00	0	9
	1	1	1	2	513	0	3.018616e+00	-2.441328e+00	-2.110370e+01	2.145783e+01	4.800000e-03	0	9
	-1	1	1	2	0	513	-1.300692e-01	-4.559832e+00	-1.137494e+02	1.138408e+02	4.800000e-03	0	9
	2	1	1	2	508	0	-9.153824e-02	-1.532656e+00	-8.684130e+00	8.818817e+00	2.300000e-03	0	9
	-2	1	1	2	0	507	-1.542966e-02	4.571287e-01	-9.731839e-01	1.075312e+00	2.300000e-03	0	9
	3	1	1	2	507	0	-1.337254e+00	1.721190e+00	-3.030489e+01	3.038332e+01	9.500000e-02	0	9
	-3	1	1	2	0	510	-4.294503e+00	-1.347874e+00	-8.773482e+01	8.785025e+01	9.500000e-02	0	9
	4	1	1	2	505	0	4.514997e-01	-1.321395e+00	-4.411039e+00	4.799253e+00	1.275000e+00	0	9
	-4	1	1	2	0	512	1.341114e+00	-7.855696e-01	-7.005701e+01	7.008585e+01	1.275000e+00	0	9
	21	1	1	2	506	508	6.947605e-01	3.513340e+00	-8.731424e+00	9.437373e+00	0.000000e+00	0	9
	21	1	1	2	501	504	3.270717e+00	3.138252e+00	-2.993088e+01	3.027216e+01	-3.371748e-07	0	9
	21	1	1	2	509	505	-3.463282e-01	4.584434e-01	-2.773775e+00	2.832656e+00	0.000000e+00	0	9
	21	1	1	2	504	501	-1.985193e-01	6.599104e-02	-1.430375e-01	2.534254e-01	-2.414264e-08	0	9
	21	1	1	2	511	506	-6.208580e-01	3.511137e-02	-3.332865e+01	3.333445e+01	6.743496e-07	0	9
	21	1	1	2	503	511	-4.423211e-01	2.867066e+00	-5.853762e+01	5.860946e+01	-6.743496e-07	0	9
	21	1	1	2	512	503	-1.299887e+00	-2.678679e-01	-6.747296e+00	6.876588e+00	8.429370e-08	0	9
</event>
</LesHouchesEvents>
